/*--------------------------------*- C++ -*----------------------------------*\
  =========                 |
  \\      /  F ield         | OpenFOAM: The Open Source CFD Toolbox
   \\    /   O peration     | Website:  https://openfoam.org
    \\  /    A nd           | Version:  6
     \\/     M anipulation  |
\*---------------------------------------------------------------------------*/
FoamFile
{
    version     2.0;
    format      ascii;
    class       volScalarField;
    location    "50";
    object      p;
}
// * * * * * * * * * * * * * * * * * * * * * * * * * * * * * * * * * * * * * //

dimensions      [0 2 -2 0 0 0 0];

internalField   nonuniform List<scalar> 
230684
(
42.8621
42.3179
41.1537
38.66
31.6661
19.6282
13.3567
15.4662
16.1165
14.7386
12.4643
9.8189
8.00286
7.93046
8.92749
9.3608
8.88988
7.77667
6.29556
4.65307
3.07384
1.72275
0.786265
0.106298
0.0121937
44.3465
44.2425
43.636
44.2514
35.7331
17.2026
2.61909
15.8494
18.1782
15.7127
13.0444
9.08742
6.11546
6.27612
8.60308
9.6966
9.61082
8.57515
6.98006
5.18378
3.50094
2.06065
0.908395
-0.0820943
-0.172228
46.6105
46.9099
47.5497
52.9523
70.6087
-5.07968
1.61281
12.108
19.051
17.4466
15.6995
8.03676
2.67619
2.26273
7.99101
10.105
10.0395
8.7928
7.00472
5.12357
3.59987
2.23408
0.950799
0.043869
-0.0882748
49.1263
48.9969
51.2175
44.95
62.7334
-10.9443
-0.686305
13.1131
14.481
15.9318
27.9241
-20.2508
-16.0562
0.360361
3.85436
13.6359
12.0305
9.65815
7.21335
5.12763
3.54789
2.11131
0.716296
0.106468
-0.0622059
51.8277
52.6565
55.0727
57.5129
48.4129
6.79962
5.96328
2.8874
4.09739
9.42912
24.1615
-50.3928
-17.1141
-6.15732
6.15671
12.6679
12.2831
10.327
7.78851
5.38737
3.65692
2.33891
0.872319
0.141131
-0.0238929
53.9792
55.3735
59.7589
70.5829
79.1034
21.91
26.1752
-6.86811
-27.0827
-4.90288
4.59126
-9.52592
-6.57571
0.904046
5.84
11.6744
12.4818
10.8519
8.12609
5.84891
3.9978
2.5927
1.16961
-0.0789056
-0.132506
54.4487
55.6167
60.8186
75.2083
88.4634
51.3497
54.5713
42.7966
-11.1683
2.87659
9.25642
3.52158
-3.88735
0.106249
8.6828
11.4326
10.3501
8.62595
6.48593
4.60422
3.22782
2.1146
0.955492
-0.228552
-0.245039
53.4998
54.0718
57.3919
64.1689
65.0343
69.2038
77.801
44.8243
-8.786
2.13544
8.5962
17.5892
-6.45483
-5.02977
-2.77487
9.26526
16.2346
14.9998
11.105
7.59673
4.96116
2.57779
0.489969
-0.26948
-0.253635
52.0471
52.3464
54.546
58.4509
62.1343
68.7545
79.9787
-57.8813
-10.2767
2.3349
7.16377
13.5583
-6.86962
-0.106962
8.45814
19.5784
22.6104
17.9261
12.4663
8.34081
5.38384
2.66711
0.242973
-0.399919
-0.325484
50.3927
50.5975
52.4234
55.8148
59.7332
63.3338
64.8354
15.2994
-17.6483
-3.75241
1.5679
6.06892
-0.468994
4.72791
2.39665
-0.124111
11.6455
14.0273
10.1883
6.7127
4.30839
2.08067
0.205373
-0.380215
-0.328304
48.5465
48.6631
50.3914
54.5566
68.1032
56.9313
73.7683
10.0239
4.65115
8.84156
7.8189
4.35554
1.33578
0.89125
1.59672
3.14431
9.57305
12.4606
7.57768
4.31234
3.15805
1.93155
0.723809
-0.318565
-0.479983
46.5503
46.4881
47.6835
50.1086
53.1881
61.9551
38.8677
50.0833
7.31757
21.589
5.15613
4.46472
18.0562
13.6314
9.23177
8.34484
6.6589
14.3454
-0.994004
0.819704
0.201759
1.84602
1.99798
1.08581
0.494886
44.6473
44.444
45.0626
45.8277
46.1151
44.6402
40.9086
47.1442
23.8435
28.6824
18.3602
1.31571
17.0505
20.0284
14.673
24.0511
5.11682
12.2088
16.6923
-3.66554
-3.27212
0.117455
0.0182941
-0.141023
0.391406
43.0143
42.7367
42.9741
42.9112
42.2057
40.5992
38.3451
35.0967
32.4206
33.3146
34.0444
16.1791
-5.94841
14.5122
11.611
-2.11775
13.2527
21.1374
41.2887
-10.1805
-8.4608
-7.0934
1.22653
1.02716
0.691328
41.7122
41.4007
41.421
41.018
40.1376
38.8013
37.1974
35.6424
35.4614
38.5304
48.7699
57.9615
-11.7952
6.08627
10.5547
13.6421
14.8247
19.7804
13.9835
-5.76102
-3.45701
-4.98146
4.23038
1.13688
1.78588
40.7373
40.4154
40.2916
39.6264
38.8232
37.8254
36.6579
35.3987
36.4937
41.6166
53.512
65.046
-3.69751
11.0188
15.2158
14.3674
15.0959
21.3456
21.1005
-8.45916
-2.91538
-1.97098
-1.82475
2.424
0.407749
40.0618
39.7471
39.3902
39.0228
38.6897
38.4994
37.3661
33.1744
33.9861
39.5983
46.1514
59.3873
-2.04602
13.5452
17.2365
14.1518
22.4225
22.3292
7.89332
-0.0221146
0.905493
4.00141
2.16248
3.43333
1.56993
39.6259
39.3578
39.1601
39.1093
39.4945
40.5169
42.3445
27.8232
32.0759
34.9061
34.6484
30.2735
14.6112
12.5141
23.3481
15.4413
11.7134
37.2399
-34.3071
-13.7818
1.60181
9.40848
6.59705
4.33751
2.27051
39.3358
39.0721
38.8812
38.7777
38.8727
39.4148
42.5784
22.607
32.1145
35.1745
37.579
43.4922
9.34962
25.9757
21.0343
21.6911
26.7186
37.8491
-33.1688
-8.89645
9.37282
8.98671
7.50976
4.86965
2.69663
39.1808
38.9062
38.6764
38.4516
38.1698
37.7806
37.2178
33.7395
31.6203
31.1723
29.6434
26.7426
20.9155
21.9496
20.8159
19.2809
19.3346
15.0187
-5.16536
2.0508
7.29516
7.26035
5.66334
3.53313
2.02102
42.5884
42.0971
40.7738
37.7548
31.4411
20.4026
14.3002
15.506
15.8452
14.4499
12.3015
9.91262
8.34283
8.28828
9.06386
9.30637
8.71234
7.52758
6.00888
4.34627
2.76407
1.41425
0.554634
-0.0742723
-0.093905
43.9568
43.8608
43.1849
43.1484
35.9597
19.0816
-14.3601
16.5142
18.3892
15.765
13.0472
9.32523
6.67129
6.70426
8.48491
9.28023
9.06246
8.02617
6.48795
4.79333
3.18718
1.78969
0.80767
0.00555589
-0.0776778
46.08
46.347
46.783
51.0869
77.4782
10.6126
18.865
17.0435
15.1082
7.64174
2.85211
2.22409
7.79599
9.74163
9.57696
8.38965
6.68213
4.91543
3.50449
2.08806
0.702398
0.173548
0.0476712
48.5006
48.3539
50.771
48.1878
63.8665
13.9186
14.2754
14.644
26.4144
-16.7133
6.60769
11.6001
10.6646
8.70878
6.57613
4.67791
3.23757
1.78635
0.362062
0.0823229
-0.0354515
51.0622
51.8962
53.7539
55.3515
46.0218
4.11988
9.44502
12.1044
5.00175
5.56105
19.5838
3.34459
11.2159
11.0538
9.18655
6.86562
4.78316
3.26208
1.89953
0.401374
-0.0275196
-0.105712
53.1183
54.5549
58.3704
68.148
85.741
-40.4397
-18.7967
-3.12203
-9.90672
-7.30854
-0.918189
11.4449
11.9756
10.2203
7.60333
5.44555
3.79625
2.34728
0.582248
-0.156125
-0.192064
53.6805
54.9552
59.555
72.7685
101.747
9.79169
-6.86067
0.133713
7.77035
11.1061
10.679
9.08455
6.79861
4.87483
3.5813
2.05806
0.184873
-0.396825
-0.342508
52.9282
53.6643
56.7813
62.9337
63.3427
68.3449
78.4704
92.6675
-12.8482
-13.9755
-9.34907
3.38075
11.2744
11.4194
8.77538
6.11637
3.93697
1.73641
-0.280446
-0.516101
-0.382324
51.6093
52.0701
54.2506
57.8841
61.4643
68.1623
81.7709
-8.81298
-7.20331
-1.58712
11.0851
16.6485
14.3356
10.3119
6.96516
4.38634
1.80671
-0.432705
-0.522653
-0.389813
50.0239
50.3644
52.1652
55.2987
58.8069
62.1016
61.943
0.669357
-21.6163
-0.721037
2.4408
-0.123631
-3.54102
2.43362
-1.2867
-0.81013
10.5987
11.9221
9.03097
6.15545
3.91011
1.59503
-0.333477
-0.350445
-0.311864
48.2293
48.4596
50.1002
53.6731
64.1061
57.6469
72.7654
0.810019
-2.16651
1.45319
3.18775
4.35954
8.13111
10.8534
6.93049
4.01416
2.66417
1.32519
0.0142426
-0.355652
-0.444132
46.2975
46.3413
47.4853
49.6044
51.8576
54.8967
45.3496
42.9976
6.93341
0.714652
12.8009
2.40425
2.74676
0.00148919
1.1975
0.816815
0.385117
0.0792103
44.4506
44.3414
44.9458
45.6283
45.6878
43.8667
40.2039
53.6848
-7.54688
11.8847
18.4926
11.1586
21.0038
0.487429
11.6857
-7.79419
-4.19364
-0.445963
-0.203712
-0.24513
0.236861
42.8551
42.661
42.8948
42.8394
42.0884
40.4365
38.1366
34.9177
32.3379
33.0871
31.3251
14.4385
-10.3179
12.1316
11.0743
-5.85833
13.0894
21.3366
67.5644
-9.11335
-0.7554
0.568247
0.650552
41.5723
41.3396
41.3579
40.9907
40.086
38.7305
37.1303
35.609
35.2618
37.3442
45.4247
74.7807
0.0196537
9.77999
13.3386
14.4885
18.2629
14.7908
-5.06427
-3.15162
-0.988761
2.64337
0.915089
1.23075
40.6059
40.3637
40.2455
39.5879
38.7483
37.7049
36.4884
35.2669
36.4877
40.6927
50.5103
84.4042
6.87517
16.1603
20.3145
26.1456
-3.65992
2.45572
0.612378
39.9304
39.7025
39.3512
38.9514
38.5564
38.2704
37.2284
33.1813
33.86
38.5652
42.7762
59.3685
13.901
9.10315
24.2869
1.24579
-2.01621
1.6387
3.96712
2.43102
2.80522
0.954038
39.4895
39.3085
39.1062
38.994
39.2644
40.1115
42.1329
26.637
33.6483
34.2995
34.1028
30.2995
15.8315
8.55046
22.9341
6.62739
52.1436
-13.153
0.33409
9.20582
6.03868
3.43876
1.45508
39.2016
39.0259
38.8398
38.6894
38.6824
39.0475
42.2993
11.6582
33.4811
34.5795
36.5372
47.2801
24.9667
20.8058
20.9432
24.8063
52.9698
-10.8055
9.10231
8.80576
6.51548
3.79206
2.01995
39.0505
38.8665
38.6527
38.4058
38.1052
37.6746
36.9573
33.6219
31.7095
31.1015
29.4044
26.7817
21.6077
21.7022
20.7105
18.7405
18.4182
15.1295
-0.977831
2.45596
7.42593
7.26436
5.41399
3.16708
1.90461
42.1735
41.6528
40.0522
36.5594
30.8164
21.5768
16.3603
16.0773
15.803
14.2117
12.1747
10.1239
8.81044
8.66986
9.11923
9.11467
8.40862
7.18911
5.67214
4.02997
2.479
1.19034
0.411195
-0.166161
-0.119677
43.4005
43.186
42.2292
40.5005
31.2033
18.788
11.9256
15.1607
16.822
14.9752
12.644
9.70513
7.61026
7.48198
8.63648
9.15565
8.83582
7.78199
6.257
4.55424
2.91729
1.53246
0.629481
-0.0730668
-0.0576019
45.3513
45.3936
45.2359
46.1294
39.6302
-0.546128
10.8528
12.9068
16.729
15.3201
13.1464
7.62573
4.13646
4.29466
7.88921
9.2884
9.07329
7.95406
6.3572
4.68041
3.2023
1.74879
0.312111
0.00656544
0.0494549
47.6547
47.9573
48.1593
47.4989
44.348
-4.41092
7.65787
12.8295
12.6892
12.2115
14.8617
-6.87543
-1.79027
-1.98339
6.28974
9.39383
9.20731
7.82882
6.11882
4.4331
3.01564
1.4739
-0.0764893
-0.0837011
-0.0391877
50.0481
50.6241
51.5823
51.7372
41.6239
13.9835
13.6211
9.48998
-2.30458
-2.69749
6.61475
-12.4413
-4.71605
0.719239
5.32365
9.36633
9.57324
8.09359
6.22109
4.49467
3.04002
1.55055
-0.114573
-0.189588
-0.138125
52.0192
53.127
55.8451
61.6224
66.1091
-53.4705
-29.9354
-11.9389
-8.23818
-6.27871
0.455192
5.84888
9.88496
10.2992
8.74476
6.62698
4.87716
3.43654
1.77212
-0.160024
-0.306737
-0.221611
52.6992
53.759
57.2664
65.5315
68.6228
23.2143
-11.3878
-1.92907
6.61449
10.2523
10.6278
8.96078
6.75712
5.02256
3.64059
1.75548
-0.642606
-0.561689
-0.358378
52.1793
52.8757
55.53
60.0457
60.0989
65.7188
78.5104
92.0832
-16.3755
-12.0091
2.75665
11.7407
13.2965
11.2995
8.371
5.83249
3.8589
1.49867
-1.1183
-0.728862
-0.427502
51.0377
51.5146
53.5176
56.5689
59.8212
66.5282
81.6063
-5.48616
-9.14161
-3.70417
4.63614
12.7457
14.9431
12.5298
9.09484
6.20966
4.00446
1.39981
-1.18819
-0.709968
-0.432138
49.5575
49.9082
51.5663
54.1216
56.7709
59.1186
54.9239
-5.213
-9.87119
4.36777
2.54475
-3.37044
-6.74342
-0.24803
2.37344
6.24497
10.079
9.91867
7.71897
5.44145
3.52845
1.18034
-1.04452
-0.567771
-0.377822
47.8443
48.0756
49.51
51.9441
54.5035
53.6741
54.9519
-3.12922
8.16134
7.117
6.04212
-0.844177
1.31915
3.53975
5.66261
5.98302
7.53523
8.82991
6.36521
3.98287
2.52473
0.89262
-0.740378
-0.498146
-0.441755
46.0009
46.0672
47.0685
48.5274
49.269
47.4653
40.0902
28.1611
16.1137
-3.08086
-2.7404
-0.826087
8.37039
9.65242
10.9966
9.82214
6.32549
9.99396
4.51484
0.636267
0.662474
0.61273
-0.308976
-0.16978
-0.172793
44.2337
44.1633
44.7049
45.134
44.7398
42.548
38.6577
32.331
25.6883
38.4183
0.0543545
-1.44462
18.7001
16.0539
11.3453
13.7248
5.86391
12.4481
2.61964
-3.71973
-1.28888
-0.799519
-1.05202
-0.444081
-0.10661
42.6935
42.5488
42.7607
42.6108
41.736
39.9896
37.5521
34.1549
31.3186
30.4488
26.099
12.8216
3.93835
11.4797
11.7662
10.5358
11.6929
15.1179
10.9503
-3.798
-1.33156
-2.31358
-1.40167
-0.153221
0.162327
41.4435
41.2641
41.2766
40.8681
39.8958
38.4791
36.8329
35.2146
34.3176
34.9868
36.9516
21.7939
-3.9359
6.65149
12.0804
13.0903
13.4934
14.6796
10.0896
0.343397
-0.210749
-1.81041
-1.57346
0.474418
0.472194
40.4946
40.3075
40.1862
39.4648
38.5504
37.3998
36.1101
35.2325
36.4478
38.7606
40.0223
20.1602
2.05359
12.2943
17.5153
14.493
13.73
16.262
9.74793
2.13738
2.43373
1.00315
0.379371
1.42572
0.378293
39.8262
39.6522
39.2762
38.8052
38.2785
37.7246
36.7102
33.759
33.9599
35.8606
37.822
27.7426
3.2441
15.1003
20.4823
14.4886
14.1663
16.2162
-0.171239
0.308717
3.50619
4.37791
2.93095
2.18889
0.654569
39.3869
39.2568
39.0231
38.8047
38.7995
39.1428
39.8517
29.0063
33.6998
33.1088
31.7613
27.2126
18.1059
19.183
19.3289
17.0414
17.555
19.4686
-13.0325
-1.98008
4.71895
6.89932
4.57647
2.6734
1.09471
39.1021
38.9801
38.7677
38.5344
38.3379
38.152
39.1406
18.5825
33.4635
33.6583
33.9164
27.4463
19.3057
21.6798
20.1177
18.9334
20.0323
14.9992
-15.1036
-1.13021
6.68503
6.68519
4.8366
2.7781
1.66589
38.9551
38.8297
38.6014
38.3043
37.9252
37.3446
36.3602
33.5109
31.8139
30.9357
29.0185
25.9715
22.3381
21.2844
20.1546
17.9526
16.6191
10.3217
-0.30103
3.32749
7.17576
6.35734
4.57051
2.54426
1.74092
41.6646
41.0835
39.2724
35.6035
29.0992
21.6717
17.631
16.5347
15.5651
13.8867
12.0551
10.3781
9.30545
9.04711
9.19084
8.97509
8.15872
6.88766
5.36409
3.74815
2.22879
0.986478
0.256309
-0.254725
-0.15053
42.7481
42.3766
41.1422
38.4151
30.9226
20.7821
16.4832
15.8211
15.8316
14.2624
12.3138
10.0665
8.47198
8.21977
8.87447
9.12736
8.67969
7.55112
5.99534
4.26891
2.61929
1.23436
0.409419
-0.215676
-0.0621525
44.5113
44.3006
43.5098
41.9516
33.4466
15.8515
14.695
14.7186
15.1362
13.5964
11.5263
7.97698
5.79019
6.13221
8.09146
8.9612
8.64888
7.55637
6.01053
4.35727
2.82517
1.38674
-0.00789874
-0.154146
0.0542993
46.6505
46.6032
46.1107
44.2723
36.5968
16.5787
14.0678
13.4521
10.9478
9.26665
9.01767
2.40044
1.76518
3.26875
6.79005
8.52461
8.34402
7.23342
5.71422
4.16533
2.72616
1.17171
-0.44739
-0.222101
-0.0403156
48.8842
49.1055
49.2283
47.9755
38.5623
20.7743
18.1542
11.4055
-3.88591
-6.40277
-0.741461
-2.8817
-1.46366
2.49076
6.01258
8.30432
8.35771
7.18304
5.65599
4.1807
2.73923
1.19979
-0.556217
-0.350653
-0.175916
50.7573
51.3829
52.801
54.3452
44.5483
21.6242
34.2443
2.45096
-43.2211
-30.1984
-15.1186
-7.68809
-4.41499
1.44537
6.33827
8.89984
8.83222
7.47973
5.80999
4.33345
2.98861
1.31351
-0.729745
-0.504624
-0.273308
51.5546
52.236
54.3951
57.5669
48.5863
46.9706
62.734
65.963
-10.9231
-0.529336
7.24523
10.176
9.99691
8.19989
6.22762
4.63347
3.3339
1.41951
-1.23736
-0.738016
-0.395385
51.2792
51.7949
53.7556
56.5666
56.8139
63.4072
80.4966
95.3715
-13.745
-0.0685158
11.5755
13.875
12.7693
10.1451
7.49522
5.34461
3.80828
1.42857
-1.67682
-0.889161
-0.465234
50.3379
50.7154
52.3641
54.7526
57.4942
63.8062
79.1998
-7.92112
-9.46039
0.399005
9.62613
13.2936
12.7628
10.3426
7.66413
5.39918
3.78129
1.22054
-1.7159
-0.8783
-0.466256
48.9915
49.2546
50.6331
52.5577
54.3052
55.2906
48.2791
-1.2133
-2.61125
3.72827
1.91858
-4.44697
-7.50884
0.119992
6.26288
8.82442
9.34386
8.36989
6.48806
4.64689
3.1721
0.87607
-1.57194
-0.786509
-0.428169
47.3855
47.5361
48.6675
50.169
50.845
49.1478
38.8352
11.9307
10.43
8.66954
5.75225
2.57403
3.24319
5.97346
8.11449
7.91611
7.4721
7.33004
5.54178
3.69193
2.31892
0.519419
-1.35765
-0.73792
-0.468155
45.6539
45.6734
46.4507
47.2672
47.0023
44.3695
36.3724
25.5255
21.1396
16.131
7.54943
4.15913
8.97443
10.1988
10.5965
9.18205
7.33095
7.73204
4.85432
1.96854
1.1847
0.213333
-1.24447
-0.67648
-0.36718
43.9859
43.9022
44.3194
44.4554
43.6328
41.2399
37.0669
30.9519
25.7924
22.9969
10.7205
9.02474
13.5684
13.7862
12.0112
10.8184
8.62144
9.15946
4.94804
0.313081
0.244752
-0.294535
-1.6656
-0.708414
-0.294563
42.5182
42.3783
42.5298
42.2559
41.2242
39.3743
36.8167
33.3644
30.2982
28.037
23.6597
16.2598
11.1345
12.6569
12.4807
11.5844
10.9545
10.8813
6.77565
0.618568
0.128556
-0.918953
-2.1281
-0.489215
-0.0802474
41.3127
41.1459
41.127
40.6648
39.598
38.12
36.4176
34.6704
33.457
33.0999
31.3689
20.4015
8.55305
11.4021
13.6199
13.546
12.9314
12.1534
8.17927
2.71132
1.05676
-0.48341
-1.62969
-0.00993754
0.167171
40.3885
40.2166
40.0712
39.299
38.2982
37.0394
35.7072
35.3252
36.3475
36.9192
34.6208
22.3356
12.2474
15.025
16.6926
15.5378
14.5668
13.6746
8.94128
4.20067
3.02114
1.45245
0.913473
1.0561
0.302826
39.7315
39.5705
39.1659
38.6244
37.9759
37.1641
35.8784
33.6467
33.9767
34.3758
31.7758
24.6846
17.4252
18.3634
18.1512
15.97
14.5929
12.8993
4.95736
3.367
4.35417
3.90539
2.58586
1.93412
0.580063
39.2967
39.1766
38.9041
38.5779
38.298
38.0334
37.2811
31.3806
32.0816
32.3312
30.1978
25.3314
20.3158
19.9284
19.24
17.411
15.5456
13.1555
-0.0440964
2.97394
5.27344
5.58795
4.04822
2.47692
1.11043
39.0163
38.9076
38.6639
38.3447
37.9618
37.3406
35.9725
31.7389
32.6023
32.4117
30.0941
25.85
21.7556
20.8924
19.7643
17.9756
15.4863
12.0328
-1.14376
3.45974
5.84852
5.90249
4.44315
2.54539
1.66387
38.8735
38.765
38.5165
38.1668
37.7005
36.9838
35.8689
33.6646
31.9749
30.8745
28.9051
25.9336
22.724
21.156
19.7154
17.4135
14.3104
9.18471
3.91674
4.59058
6.44605
5.75453
4.24414
2.31397
1.82128
41.1324
40.5123
38.5984
35.0394
29.494
23.2832
19.1855
17.1016
15.4902
13.7457
12.1038
10.7304
9.82142
9.43214
9.29519
8.85785
7.91252
6.59261
5.08057
3.48464
1.98379
0.784856
0.113693
-0.329074
-0.184064
42.0818
41.5988
40.1893
37.1441
31.1378
23.5028
18.9588
16.7239
15.4647
13.8704
12.1584
10.4243
9.22757
8.93485
9.15618
9.12317
8.50933
7.28496
5.69065
3.96359
2.31703
0.931804
0.192657
-0.349319
-0.0921646
43.664
43.2753
42.0592
39.5155
32.7394
22.7209
18.3607
16.1744
14.5056
12.5646
10.6862
8.46636
7.17938
7.40097
8.39045
8.76968
8.30425
7.1853
5.6589
4.00388
2.48479
1.04653
-0.23233
-0.267393
0.0310889
45.6282
45.3571
44.356
41.8072
34.9573
23.9263
18.6582
14.9036
10.4505
7.79418
6.93983
4.74434
4.31111
5.57389
7.34653
8.21127
7.84698
6.79017
5.34232
3.85762
2.41358
0.87186
-0.697933
-0.326851
-0.0765096
47.7043
47.6473
47.1519
45.0979
37.9148
27.4277
22.7669
13.5902
-2.0752
-6.03155
-2.17675
-0.507305
1.24661
4.17043
6.68388
7.93238
7.68756
6.61676
5.22439
3.83512
2.42804
0.856351
-0.856013
-0.479597
-0.221631
49.4743
49.7207
50.145
49.5881
42.642
34.421
37.9125
12.1876
-32.9537
-24.4812
-10.5556
-4.87028
-2.49907
2.55015
6.69607
8.39286
7.9453
6.68214
5.20957
3.86439
2.56026
0.962443
-1.06188
-0.64868
-0.32632
50.3683
50.7299
51.8454
52.7116
48.5145
49.4254
63.4721
79.106
-6.81609
1.61526
7.55709
9.7444
9.10826
7.29737
5.52165
4.09494
2.9456
1.11302
-1.51022
-0.845056
-0.432638
50.3154
50.6414
51.9521
53.5957
54.4001
60.4467
77.1536
98.5209
-10.9034
4.57271
11.2752
12.0815
10.6527
8.37113
6.25447
4.58271
3.43691
1.25992
-1.87777
-0.972129
-0.496364
49.5727
49.8234
51.0738
52.7907
54.8713
60.019
73.9534
-11.0848
-10.6165
2.01891
10.2837
11.7649
10.4422
8.29623
6.24794
4.50062
3.33099
1.00674
-1.91845
-0.977599
-0.501803
48.3726
48.5278
49.5896
50.8943
51.7874
51.5848
44.5845
2.44305
1.26399
4.25928
2.51892
-6.44522
-6.01901
2.72524
8.65261
9.58585
8.60983
7.13743
5.44912
3.92503
2.73795
0.616818
-1.82533
-0.929636
-0.479368
46.8891
46.9469
47.7775
48.5824
48.3241
45.6599
36.2776
19.2927
12.5283
10.0391
7.16683
4.46327
5.40265
8.2416
9.75962
8.9342
7.68514
6.59118
4.9768
3.41503
2.07545
0.251142
-1.72235
-0.913026
-0.496451
45.2806
45.239
45.7894
46.0821
45.1893
42.1797
35.3928
26.3243
20.6038
16.5089
11.4671
8.94856
10.4625
11.4603
11.1002
9.61432
7.97909
6.92609
4.80652
2.67567
1.43775
-0.0211369
-1.76053
-0.928834
-0.45104
43.7208
43.609
43.8906
43.7427
42.6041
40.0831
35.9858
30.4781
25.6296
21.6453
15.7689
13.3851
13.8416
13.6477
12.3697
10.8247
9.09884
7.82661
5.00208
2.1322
0.995251
-0.252914
-2.04534
-0.898285
-0.400184
42.3334
42.1844
42.2671
41.8557
40.6807
38.7608
36.1449
32.745
29.702
26.9941
23.0761
18.1045
14.6031
14.0633
13.3384
12.1269
10.7452
9.23575
6.10451
2.52193
1.04895
-0.409271
-2.20929
-0.680265
-0.230207
41.1791
41.0118
40.9585
40.4287
39.277
37.7576
36.0117
34.2154
32.9676
31.9005
28.9089
21.6964
15.1092
14.6811
14.9028
14.0793
12.7193
10.9839
7.68209
3.91818
1.83979
0.0614667
-1.54504
-0.281883
-0.0379875
40.2837
40.1142
39.9455
39.1244
38.0536
36.7284
35.4463
35.4351
36.2273
35.5622
32.3682
24.7102
17.8219
17.4196
17.397
16.1578
14.585
12.5611
8.85954
5.26367
3.37124
1.56744
0.642011
0.700289
0.155487
39.6403
39.4799
39.0515
38.4532
37.7206
36.8294
35.7523
34.3112
34.0033
33.4893
30.9316
25.6434
20.2143
19.2962
18.5993
16.4664
14.1418
11.09
6.14115
4.33274
4.19308
3.4855
2.21424
1.60674
0.467403
39.2116
39.0892
38.7834
38.3685
37.8885
37.228
35.8935
33.0287
32.2364
31.8371
29.6425
25.6106
21.5753
20.2796
19.1199
16.9883
14.4556
10.5669
4.43115
3.95808
4.96579
4.81794
3.56446
2.15515
1.03187
38.9364
38.8277
38.5568
38.1673
37.6567
36.8867
35.6216
33.3749
32.4116
31.6882
29.5915
26.0914
22.5914
20.9731
19.5354
17.3782
14.5057
9.86168
4.32975
4.31373
5.58402
5.31453
3.9464
2.12711
1.53071
38.798
38.6926
38.4258
38.0296
37.4917
36.7013
35.567
33.7332
32.1211
30.7859
28.7868
26.0062
23.1011
21.164
19.4295
17.0576
14.0224
9.90417
5.76624
5.25242
6.04435
5.38527
3.98413
2.05646
1.81248
40.6329
39.9992
38.0629
34.6689
29.8658
24.5353
20.3736
17.6105
15.5339
13.7125
12.2208
11.0661
10.239
9.73488
9.37088
8.73458
7.68013
6.33023
4.82362
3.237
1.76598
0.611375
-0.00616072
-0.38699
-0.217886
41.4685
40.9257
39.4278
36.3746
31.3832
25.2916
20.6297
17.5198
15.4636
13.726
12.157
10.7909
9.85458
9.49099
9.39507
9.07343
8.28529
6.98477
5.37623
3.6685
2.02622
0.672994
0.00683826
-0.464192
-0.131356
42.8919
42.4035
40.95
38.1736
32.8111
25.7842
20.7804
17.2687
14.4535
12.1818
10.4608
8.9875
8.19174
8.25162
8.64953
8.63211
7.98772
6.83966
5.31032
3.6974
2.20213
0.761059
-0.384328
-0.355586
-0.00392556
44.696
44.2969
42.9947
40.2453
34.7284
27.1923
21.4774
16.2463
10.8797
7.72107
6.70465
5.94778
5.9618
6.83038
7.71238
8.01805
7.47706
6.39254
4.99973
3.54433
2.14428
0.601132
-0.858861
-0.415045
-0.118275
46.6236
46.3921
45.4854
43.1639
37.8163
30.7315
25.0838
14.9229
0.858489
-3.18057
-0.697652
1.52267
3.31849
5.47345
7.14865
7.73219
7.26026
6.19644
4.86431
3.49943
2.1541
0.584553
-1.02857
-0.566633
-0.266579
48.298
48.2986
48.0702
46.7623
42.3645
37.8907
37.0949
14.4423
-31.6453
-22.0178
-7.79308
-2.83842
-0.178266
3.79757
6.84212
7.87929
7.27677
6.09093
4.74717
3.46746
2.21071
0.693364
-1.20932
-0.729061
-0.372193
49.258
49.3957
49.7986
49.7412
47.7476
48.5772
56.8186
71.8424
-3.66845
2.54817
7.12633
8.568
7.86747
6.32583
4.83109
3.55983
2.45322
0.799346
-1.55062
-0.88569
-0.463222
49.3816
49.5481
50.3164
51.1891
51.9067
55.9106
66.1767
83.81
-8.99107
3.52121
9.00643
9.85146
8.68873
6.88868
5.21541
3.80853
2.74875
0.858103
-1.83014
-0.990402
-0.519864
48.8148
48.9441
49.7979
50.8808
52.1006
55.0669
63.0829
-12.9905
-10.2281
2.70376
9.42703
10.1394
8.71883
6.87821
5.18204
3.697
2.66511
0.641659
-1.88982
-1.01308
-0.532576
47.7572
47.8115
48.5514
49.293
49.3813
48.0655
40.8259
7.35291
3.88263
5.14662
3.88092
-6.05477
-1.88459
5.95341
9.75195
9.52276
7.99632
6.31622
4.73001
3.40226
2.23152
0.362346
-1.86992
-1.00205
-0.525032
46.3996
46.3728
46.9246
47.2011
46.3169
43.17
35.2764
22.1347
14.2874
11.436
8.95839
6.83731
7.67593
9.80609
10.4973
9.38968
7.79767
6.23596
4.68361
3.24578
1.83112
0.0687765
-1.86575
-1.01036
-0.5328
44.9126
44.8156
45.1531
45.05
43.7481
40.5952
34.778
27.1565
21.1486
17.1109
13.7112
11.8198
11.9706
12.2549
11.5875
10.0959
8.35346
6.74983
4.85786
3.02445
1.52955
-0.139834
-1.96817
-1.04168
-0.510682
43.4601
43.3183
43.4663
43.0846
41.7238
39.1477
35.2466
30.2587
25.6852
21.8829
18.0476
15.6671
14.7699
14.0477
12.8027
11.22
9.37268
7.56367
5.23256
2.93795
1.37924
-0.257983
-2.14862
-0.992624
-0.466517
42.1529
41.9906
42.001
41.465
40.1856
38.2304
35.6036
32.3132
29.37
26.6224
23.1946
19.4123
16.6067
15.2774
14.1191
12.6269
10.8193
8.80019
6.16576
3.4191
1.59841
-0.1843
-2.12206
-0.772687
-0.327626
41.0508
40.8788
40.7882
40.1946
38.9835
37.4486
35.6918
33.9161
32.6789
31.1889
27.9996
22.9262
18.4708
16.8721
15.9913
14.5955
12.7436
10.5883
7.63386
4.53969
2.29181
0.3018
-1.38512
-0.427777
-0.163099
40.185
40.0138
39.8206
38.962
37.846
36.4934
35.3274
35.5851
36.1302
34.7323
31.4285
26.0566
21.0689
19.3518
18.3097
16.7017
14.6091
12.1328
8.86719
5.73664
3.53063
1.56402
0.496416
0.428176
0.0551992
39.5561
39.3927
38.9452
38.3073
37.5323
36.6374
35.7087
34.6859
34.0503
33.0148
30.5084
26.3227
22.0671
20.1413
18.7979
16.6085
14.056
11.1225
7.32038
5.12635
4.20879
3.22533
1.96311
1.35949
0.399502
39.1338
39.0064
38.6735
38.1961
37.6076
36.8373
35.6971
33.7553
32.5693
31.5513
29.3533
25.953
22.5347
20.6413
19.076
16.8495
14.2287
10.8423
6.43497
4.96449
4.94565
4.42452
3.30162
1.96219
1.0063
38.8641
38.7517
38.4579
38.0178
37.434
36.6141
35.4491
33.7144
32.4565
31.3328
29.2868
26.2712
23.1783
21.1141
19.3421
17.0673
14.2752
10.5622
6.40311
5.31957
5.54049
4.93132
3.64217
1.91087
1.50991
38.7297
38.6228
38.339
37.9057
37.3174
36.4929
35.3727
33.7826
32.219
30.7242
28.7233
26.118
23.3866
21.223
19.2666
16.8785
13.9829
10.5002
7.08788
5.86406
5.84331
5.0746
3.75217
1.86238
1.79291
40.2038
39.5726
37.6556
34.437
30.1632
25.4059
21.2522
18.092
15.6982
13.8061
12.3979
11.3539
10.5575
9.96035
9.41298
8.61322
7.4776
6.10659
4.59518
3.01963
1.58317
0.467069
-0.111266
-0.436497
-0.24495
40.9498
40.3828
38.8507
35.906
31.5925
26.4172
21.802
18.222
15.6859
13.7879
12.2873
11.1359
10.3389
9.89085
9.5567
8.99806
8.05182
6.69085
5.08991
3.38781
1.77344
0.463291
-0.144973
-0.557841
-0.158386
42.2449
41.7096
40.1425
37.4099
32.9568
27.3402
22.3323
18.1804
14.7624
12.2583
10.606
9.48624
8.91138
8.80833
8.81387
8.50189
7.70843
6.52048
4.99913
3.4367
1.96719
0.548275
-0.496168
-0.425295
-0.0265682
43.9143
43.4494
41.9827
39.2734
34.7344
28.7986
23.1332
17.3799
11.8136
8.4729
7.29652
6.91019
7.04678
7.55526
7.90172
7.83218
7.16804
6.04165
4.70273
3.27689
1.91761
0.400324
-0.967322
-0.480742
-0.148418
45.7149
45.3834
44.2231
41.8854
37.6511
32.0395
25.9234
15.9667
4.41761
0.618179
1.78363
3.44114
4.88961
6.34746
7.34308
7.48904
6.90085
5.83377
4.55717
3.22005
1.91665
0.411847
-1.11828
-0.621291
-0.29883
47.3068
47.1585
46.5235
44.9714
41.7419
37.9556
33.53
14.7907
-15.6504
-11.3092
-3.75089
-0.271783
2.06424
4.88767
6.88239
7.39319
6.782
5.65617
4.39774
3.17524
1.93825
0.497299
-1.25046
-0.766589
-0.401784
48.3038
48.29
48.2168
47.6967
46.2405
45.5629
44.8852
6.09146
-34.5094
-11.204
-2.86994
-2.67833
-1.12931
3.75676
6.88521
7.67693
6.99854
5.69045
4.37984
3.17018
2.03538
0.53746
-1.48366
-0.887641
-0.479742
48.554
48.5953
48.9305
49.2176
49.3132
50.4581
50.0363
-17.9355
-32.8658
-7.23335
-0.715837
-4.56865
-3.41059
4.01869
7.98653
8.4945
7.49333
5.98269
4.54839
3.26073
2.14578
0.502604
-1.6858
-0.974417
-0.530586
48.1296
48.1542
48.6461
49.151
49.3915
49.653
46.2335
-39.0051
-15.2413
-0.72472
1.49095
-4.27158
-2.68227
5.01862
8.92476
9.05882
7.68335
6.06567
4.54228
3.18974
2.09978
0.354048
-1.7671
-1.0117
-0.550208
47.199
47.1665
47.6089
47.8502
47.2176
44.8415
36.8112
13.3256
6.08617
6.30518
4.81283
1.28212
3.60393
7.96187
9.8438
9.20542
7.62758
5.91669
4.38442
3.10547
1.84844
0.170201
-1.81358
-1.02877
-0.554901
45.9571
45.8627
46.1683
46.0385
44.7032
41.2991
34.3827
23.6853
16.0372
12.8797
10.8067
9.28865
9.6773
10.7482
10.7646
9.57632
7.87387
6.1332
4.586
3.1601
1.64099
-0.0500562
-1.87427
-1.05378
-0.56152
44.5807
44.438
44.5911
44.1917
42.6205
39.4353
34.2645
27.6376
21.9026
18.0247
15.2697
13.5569
13.0012
12.7367
11.881
10.3992
8.58422
6.77216
4.95815
3.21184
1.54364
-0.208654
-1.99173
-1.0847
-0.548972
43.2246
43.0566
43.0857
42.5204
41.0142
38.4275
34.7147
30.1062
25.8121
22.331
19.2648
16.9787
15.5729
14.5006
13.1994
11.5453
9.60704
7.61765
5.45634
3.38317
1.58826
-0.238851
-2.10343
-1.01931
-0.506048
41.9904
41.8156
41.7583
41.1185
39.7707
37.8062
35.1947
32.0059
29.1652
26.5182
23.482
20.3497
17.854
16.2057
14.7426
13.0151
10.9603
8.76132
6.33859
3.89086
1.8969
-0.056977
-1.97582
-0.78837
-0.370799
40.9364
40.7592
40.6325
39.983
38.7387
37.2144
35.4845
33.752
32.4922
30.7686
27.7082
23.7918
20.3195
18.2936
16.8026
15.0033
12.8306
10.4525
7.6637
4.82525
2.53131
0.450146
-1.22542
-0.511403
-0.229729
40.0982
39.9243
39.7082
38.823
37.6887
36.3464
35.374
35.836
36.0653
34.2525
31.0402
26.8747
22.9448
20.7078
19.0698
17.084
14.6513
11.9482
8.87017
5.90855
3.55696
1.50997
0.410881
0.254046
0.0106602
39.4832
39.316
38.8549
38.193
37.4029
36.5397
35.7338
34.9443
34.1352
32.7894
30.3361
26.7968
23.1939
20.8259
19.0168
16.7306
14.0716
11.2506
8.02004
5.60791
4.18004
3.00768
1.7904
1.16927
0.364616
39.0673
38.9345
38.5817
38.0644
37.4223
36.6149
35.5706
34.0864
32.7665
31.3929
29.2326
26.2335
23.1783
20.9752
19.1193
16.8126
14.1451
11.0664
7.59726
5.66593
4.94484
4.20378
3.09664
1.72802
0.955939
38.8025
38.6856
38.3739
37.8997
37.2737
36.4387
35.341
33.8731
32.5081
31.1243
29.1101
26.3923
23.5612
21.2832
19.288
16.9547
14.221
10.9981
7.65067
6.00988
5.5033
4.67496
3.43758
1.74794
1.49317
38.6716
38.5614
38.2632
37.8027
37.1816
36.343
35.2471
33.8075
32.2757
30.6839
28.6854
26.2078
23.5973
21.3148
19.2069
16.8099
14.0337
10.9354
7.9332
6.3496
5.77176
4.85826
3.60172
1.74413
1.79864
39.8686
39.2464
37.3641
34.295
30.3734
25.9913
21.8906
18.5187
15.9212
13.967
12.5821
11.5705
10.7672
10.0948
9.40879
8.49761
7.31688
5.92862
4.40661
2.84472
1.43653
0.349885
-0.199602
-0.486323
-0.258455
40.5492
39.977
38.4363
35.6193
31.7457
27.1195
22.6235
18.8352
16.0291
13.9688
12.4751
11.4162
10.6667
10.1442
9.62613
8.90715
7.8345
6.43359
4.83042
3.14305
1.56384
0.29467
-0.275183
-0.633708
-0.161323
41.7487
41.196
39.5798
36.9585
33.0641
28.1903
23.3333
18.9285
15.2256
12.5643
10.8987
9.91628
9.39861
9.13831
8.87209
8.37415
7.47148
6.2413
4.73262
3.21927
1.77511
0.379747
-0.601444
-0.482196
-0.0272101
43.3143
42.8189
41.2651
38.6625
34.7301
29.5964
24.1035
18.2964
12.8653
9.4854
8.09981
7.68391
7.74818
7.95544
7.97902
7.66474
6.91782
5.77883
4.45165
3.06615
1.7408
0.249783
-1.0507
-0.524074
-0.158934
45.0156
44.6296
43.3147
41.0285
37.3837
32.389
26.1563
17.1414
7.81141
4.0406
4.11119
5.04098
5.9911
6.85715
7.35191
7.23803
6.61079
5.5452
4.30565
3.02154
1.74402
0.280427
-1.1693
-0.656759
-0.3103
46.5421
46.3055
45.4132
43.7552
40.929
36.9725
30.7099
15.3655
-2.28502
-3.3025
-0.0430742
2.23656
4.04199
5.82815
6.93204
7.0467
6.45285
5.36999
4.15582
2.9863
1.75653
0.357997
-1.25491
-0.783945
-0.409321
47.5553
47.4423
47.0404
46.2023
44.6009
42.3217
36.5302
12.4319
-12.8658
-6.54159
-1.34515
0.171128
2.1888
5.26985
6.97741
7.21798
6.52967
5.37072
4.13487
2.94809
1.78358
0.352842
-1.40937
-0.878016
-0.477815
47.8897
47.8366
47.8337
47.6405
46.9644
45.6278
39.2202
5.9988
-13.9322
-4.69407
-0.282124
-0.503702
1.41276
5.69061
7.79445
7.82411
6.86565
5.5399
4.20096
2.96826
1.79475
0.272356
-1.55512
-0.952374
-0.524779
47.5706