/*--------------------------------*- C++ -*----------------------------------*\
  =========                 |
  \\      /  F ield         | OpenFOAM: The Open Source CFD Toolbox
   \\    /   O peration     | Website:  https://openfoam.org
    \\  /    A nd           | Version:  6
     \\/     M anipulation  |
\*---------------------------------------------------------------------------*/
FoamFile
{
    version     2.0;
    format      ascii;
    class       volScalarField;
    location    "30";
    object      epsilon;
}
// * * * * * * * * * * * * * * * * * * * * * * * * * * * * * * * * * * * * * //

dimensions      [0 2 -3 0 0 0 0];

internalField   nonuniform List<scalar> 
230684
(
0.194645
0.17261
0.150957
0.13825
0.244293
0.213321
0.191835
0.12596
0.152602
0.194987
0.244553
0.300982
0.353487
0.421801
0.476996
0.52558
0.584601
0.649385
0.718095
0.78146
0.84134
0.894423
0.933701
0.949382
0.949048
0.193361
0.174653
0.300251
0.240614
0.374319
0.386387
1.15444
0.34367
0.330921
0.364956
0.40051
0.438685
0.517327
0.648716
0.825075
1.03797
1.28326
1.54862
1.90774
2.04623
2.12686
2.16983
2.16968
1.93867
1.54572
0.193965
0.173634
0.306412
0.424381
0.370633
1.78373
1.29848
1.62703
1.07137
0.689151
0.6777
0.769559
0.876241
0.97196
1.18132
1.67058
2.22086
2.46352
2.46888
2.44218
2.3938
2.34313
1.65151
0.91202
0.745921
0.199006
0.333043
0.530105
0.391807
0.244991
1.88935
1.76014
0.948749
1.41666
1.5078
1.0945
5.25921
2.49661
1.50329
1.395
0.685335
0.624674
0.593456
0.664254
0.781903
0.86666
0.888546
0.674923
0.448299
0.35656
0.193658
0.174152
0.300257
0.407077
0.289069
0.359486
0.470233
0.481801
0.960871
1.52201
1.50604
4.4934
2.57704
1.72321
1.79225
0.795489
0.795486
0.80119
0.916404
1.03304
1.09293
1.10125
0.902936
0.558369
0.422819
0.193713
0.173689
0.30018
0.372279
0.338472
0.90361
0.619584
0.568847
1.03139
1.35559
1.2693
1.41246
1.57851
0.811917
2.28493
0.842542
0.791131
0.645315
0.49213
0.596768
0.743888
0.819153
0.697799
0.439804
0.344016
0.193813
0.173706
0.300562
0.373031
1.00875
0.840977
0.482679
0.486889
0.426752
0.408309
0.345818
0.721531
0.559245
0.78263
0.556198
0.467187
0.578853
0.749331
0.804724
0.846638
0.852723
0.848028
0.661833
0.400927
0.310058
0.19406
0.173709
0.304409
0.40874
0.261303
0.217918
0.192162
5.32687
2.61527
1.21916
0.703133
0.521852
1.52524
3.28581
1.97733
1.26877
0.930161
0.732449
0.647955
0.659719
0.703404
0.738527
0.616202
0.39008
0.307074
0.194155
0.173848
0.306462
0.422152
0.289877
0.201587
0.190344
6.5814
3.03898
1.27762
0.845214
0.760618
4.76617
2.8718
2.18015
1.41524
0.834055
0.592369
0.527205
0.546311
0.588439
0.63299
0.582863
0.397174
0.310569
0.194207
0.173949
0.307347
0.427734
0.297143
0.210644
0.2313
1.60153
2.62077
0.890492
1.33468
0.834066
1.6201
0.957879
0.633412
1.09368
1.29415
1.18621
1.06767
0.970659
0.895492
0.859
0.686923
0.434724
0.333835
0.194247
0.173982
0.307801
0.42732
0.291441
0.811346
0.588872
2.07218
1.64592
0.893714
0.824752
1.45095
1.45175
0.700672
0.718587
1.20178
1.47519
1.42759
1.20186
1.02918
0.92146
0.890556
0.714238
0.411875
0.331377
0.194268
0.174035
0.308734
0.43587
0.317101
0.256831
1.00437
0.489299
1.54541
0.334471
0.411956
0.535172
0.615804
0.404396
0.431838
0.553925
0.793329
0.853958
1.55857
1.38101
0.809852
0.69605
0.437695
0.262769
0.219205
0.194311
0.17405
0.30926
0.441619
0.323836
0.286303
0.404369
0.856069
1.28316
1.20808
0.977438
0.387103
2.22157
0.404402
1.94781
0.957713
2.76819
0.431749
2.43866
1.52769
1.50274
1.06493
0.745818
0.487957
0.153676
0.194293
0.17411
0.309396
0.443143
0.32272
0.341911
0.777894
1.09722
1.10575
0.908321
0.895621
1.02288
1.02169
1.11359
1.46049
2.0359
0.729138
0.739724
2.08024
1.71991
2.64715
1.25505
0.904052
0.52027
0.173671
0.194258
0.174183
0.309356
0.439699
0.310464
0.413774
1.1145
1.39897
1.43733
1.33244
1.21201
5.18204
3.99677
1.7378
0.701582
0.784737
0.790715
0.776268
0.961368
1.17082
1.22321
2.27787
2.64089
1.21139
0.316428
0.192767
0.176806
0.299277
0.23859
0.196285
0.177388
0.295718
0.639029
0.770991
0.75809
1.46163
7.91249
3.47116
2.34269
0.915201
1.47513
1.07986
0.972641
1.05114
2.25456
1.29881
0.850986
0.326605
0.402306
0.406337
0.195124
0.172966
0.150449
0.137696
0.122655
0.110211
0.201997
0.192439
0.21626
0.430249
0.925803
0.924255
3.75269
2.17706
1.27301
0.534613
0.751916
1.47657
2.28916
0.884224
0.983042
0.364038
0.481874
0.910387
0.796752
0.19648
0.170606
0.153609
0.134848
0.126203
0.213616
0.356152
0.371433
0.395031
0.310222
0.534709
0.930035
0.916146
0.96428
0.731211
1.02786
1.4784
1.03277
11.7506
3.88471
2.05621
1.59232
1.48455
1.29653
1.17308
0.195692
0.172054
0.151988
0.137765
0.123148
0.115114
0.197701
0.62699
0.301756
0.162793
0.327852
1.80574
3.57711
1.10642
0.779383
0.563364
0.455597
0.977485
11.3436
4.18509
1.95395
1.28462
1.25899
1.23042
1.1374
0.195935
0.171661
0.152594
0.137064
0.124842
0.114365
0.105599
0.101439
0.0928323
0.090036
0.0916332
0.191178
0.213201
0.169303
0.202222
0.231787
0.438106
0.990524
1.25779
0.69742
0.397075
0.410047
0.426371
0.444326
0.461695
0.0369437
0.0412972
0.0445981
0.04871
0.0604656
0.0669545
0.064988
0.10045
0.105189
0.113871
0.129023
0.147576
0.169183
0.195666
0.228019
0.267095
0.31222
0.359563
0.406566
0.449152
0.487126
0.520069
0.544847
0.56562
0.554808
0.0371326
0.0407395
0.0548134
0.0584422
0.120359
0.442424
0.98768
1.0547
0.694701
0.606442
0.524251
0.454801
0.40052
0.427045
0.485494
0.583025
0.716753
0.854678
0.975236
1.06211
1.1056
1.10812
1.11361
1.12039
1.02022
0.0374555
0.041636
0.0542345
0.0721014
0.406756
3.78717
2.39406
1.26134
0.649715
0.438007
0.504112
0.606497
0.70916
0.828696
0.932388
0.980146
0.990519
0.999511
1.00715
1.00741
0.850015
0.608589
0.541238
0.0377523
0.0480797
0.0553046
0.112429
0.276474
1.56797
0.670324
0.324049
0.318808
3.04895
0.638066
0.337156
0.238874
0.195614
0.203702
0.254452
0.301148
0.318404
0.29097
0.262165
0.232707
0.037859
0.0427517
0.0573738
0.0798833
0.134542
0.733508
0.657718
1.18817
1.25595
0.724399
0.544053
2.65521
0.642539
0.252121
0.176309
0.251664
0.404071
0.514064
0.57663
0.524216
0.392247
0.312483
0.0379455
0.0428872
0.0614002
0.0899193
0.429572
2.20151
1.66533
0.964279
1.58865
2.38243
1.47496
0.750029
0.413737
0.255396
0.167398
0.20144
0.323088
0.425469
0.368288
0.272834
0.224332
0.0377631
0.0423931
0.0600493
0.092241
0.888598
0.158854
1.10827
0.947152
0.684823
0.531454
0.411492
0.313175
0.271325
0.277753
0.290821
0.313348
0.282798
0.233057
0.192395
0.0374607
0.0420509
0.0517322
0.074132
0.155389
0.268636
0.495754
3.27044
1.50761
1.42215
1.21278
0.713685
0.343393
0.197987
0.219276
0.269877
0.300561
0.322317
0.302849
0.249838
0.20745
0.0372474
0.0409758
0.0501722
0.0679419
0.0692027
0.072809
0.196378
1.36076
1.8254
1.29145
0.613891
0.278535
0.17847
0.204796
0.259553
0.30595
0.323216
0.30548
0.250762
0.204768
0.0371312
0.0404927
0.050942
0.0664537
0.066774
0.0767353
0.19737
2.5193
5.57216
3.81547
2.92018
1.27857
1.81158
1.00603
0.831551
0.707416
0.505064
0.352993
0.296169
0.302358
0.314181
0.334693
0.309217
0.250632
0.214614
0.0370349
0.0402591
0.050666
0.0660471
0.127316
2.27423
0.956281
1.15704
0.562453
0.504858
0.552637
0.574546
0.593917
0.527962
0.458386
0.477027
0.470384
0.434411
0.345994
0.241915
0.208016
0.0369023
0.0400354
0.049773
0.0648909
0.0678548
0.205245
1.55045
1.5198
0.348495
2.78555
1.56019
1.83316
0.975029
0.454619
0.318945
0.234447
0.16347
0.135309
0.0367571
0.0400425
0.0480633
0.0636539
0.0633097
0.140664
0.309072
1.51473
1.73072
1.57091
1.35142
1.92833
0.395683
0.504238
0.866717
0.309242
1.20937
0.533268
0.203618
0.132019
0.0868057
0.0367179
0.0394031
0.0489101
0.0626141
0.0622936
0.186049
0.314436
0.277291
0.337646
0.522302
0.733194
1.07178
2.39512
1.06872
2.20329
1.61495
0.52874
0.348053
2.83071
0.831006
0.510995
0.227816
0.110774
0.0365609
0.0397205
0.0474279
0.0617123
0.0623209
0.213053
0.361908
0.29586
0.284601
0.355409
0.466863
5.34205
3.57584
0.98417
0.509319
0.343004
0.326979
0.431544
0.880899
1.16154
1.39447
1.32101
0.397248
0.226442
0.0365534
0.0402944
0.0485218
0.0520416
0.0512825
0.0705083
0.156567
0.22615
0.237322
0.278765
0.405312
17.3803
1.47314
1.29912
0.748504
0.653901
1.12401
0.669182
0.493876
0.0367844
0.0401911
0.0414618
0.0416532
0.0407456
0.0388537
0.0465951
0.0850109
0.141831
0.171022
0.221979
1.3445
0.0337844
3.50165
3.18224
6.49188
2.40373
1.29711
0.96365
0.966281
1.0499
0.851024
0.0368381
0.0401737
0.0415788
0.0417635
0.0406827
0.0467627
0.0519811
1.01588
0.994265
0.631331
0.481603
0.409836
1.18269
7.12483
3.03926
2.62843
2.61253
6.03316
5.72406
3.28488
2.39575
1.97068
1.50132
0.0367821
0.0401507
0.0414897
0.0417975
0.0413584
0.040239
0.0481717
2.40718
0.710311
0.373305
0.398231
1.28949
3.11852
0.941717
0.906825
0.829472
3.78583
8.37502
6.27213
2.68249
2.09663
1.78126
1.35695
0.0367782
0.0401131
0.0414853
0.0416149
0.0411061
0.0403898
0.0407152
0.0412884
0.0426854
0.0515848
0.0648954
0.0946337
0.153255
0.175708
0.225232
0.249343
0.276243
0.41965
4.92151
1.40504
0.587574
0.517625
0.46922
0.433364
0.403264
0.029535
0.0294402
0.029978
0.0313767
0.0351505
0.0385748
0.0400684
0.0548839
0.0626277
0.0744865
0.0944428
0.121977
0.153952
0.18934
0.230865
0.27861
0.329806
0.380575
0.428399
0.471338
0.508668
0.540552
0.563985
0.570977
0.567776
0.0295556
0.0294982
0.0307376
0.0326458
0.0657949
0.111874
0.241215
0.242442
0.212942
0.229556
0.270019
0.326195
0.386814
0.455512
0.54998
0.670108
0.805074
0.929927
1.02958
1.10933
1.14878
1.17987
1.18027
1.16156
1.01555
0.0296181
0.0296324
0.0311036
0.0349758
0.179135
1.62865
1.14776
0.710412
0.415633
0.235786
0.174551
0.181329
0.269846
0.404122
0.53999
0.682143
0.80751
0.884818
0.933788
0.976594
1.00449
1.01479
0.842944
0.572301
0.533218
0.0296551
0.0296359
0.0307799
0.0348563
0.0856777
1.66699
0.921554
0.416225
0.225916
0.129881
0.112544
1.28949
0.953816
0.524856
0.264562
0.153796
0.121956
0.111216
0.110919
0.11757
0.134903
0.151037
0.138233
0.129535
0.142176
0.0297062
0.0299236
0.0321492
0.037566
0.118073
1.04347
1.23137
1.10131
0.999473
0.70009
0.43644
1.72318
1.99776
0.993696
0.387031
0.152181
0.0814297
0.0673783
0.0649607
0.0827037
0.126067
0.169197
0.16546
0.137714
0.13645
0.0297051
0.0300764
0.0334047
0.048118
0.687931
3.64388
3.27303
1.91168
0.876247
0.76557
0.528213
0.318279
0.162034
0.102313
0.0776703
0.0629362
0.0651773
0.0947922
0.141629
0.138318
0.10532
0.1048
0.0296499
0.0298614
0.0327193
0.0480232
4.42435
1.86854
1.1159
0.739185
0.423583
0.322159
0.200155
0.102044
0.0748625
0.0807813
0.0957471
0.113278
0.111934
0.0935032
0.0922242
0.0295834
0.029666
0.031016
0.0369553
0.116817
0.277809
0.533832
3.90345
1.19218
1.62072
1.3417
0.664251
0.258834
0.0992574
0.0769355
0.0985163
0.120904
0.136919
0.128072
0.104337
0.1016
0.029556
0.0294203
0.0304539
0.0335394
0.0370927
0.0574311
0.381916
2.42561
1.32577
1.98709
1.3178
0.561675
0.211782
0.0854697
0.0773823
0.104039
0.129441
0.146462
0.131781
0.10331
0.100731
0.0295288
0.0293507
0.0303303
0.0327642
0.0358992
0.069029
0.200391
2.74535
3.99103
4.46288
1.6908
0.769314
0.767727
0.487801
0.468051
0.365507
0.195403
0.0994057
0.0830673
0.0950433
0.112117
0.12798
0.120855
0.0979545
0.0964217
0.0295073
0.0293094
0.0301936
0.0325763
0.0392611
0.15848
1.68009
7.45065
4.11347
2.90623
1.8207
0.871218
0.521648
0.439843
0.496311
0.475919
0.415047
0.266954
0.184303
0.156813
0.149193
0.143389
0.121
0.0934856
0.0910713
0.0294798
0.0292256
0.030008
0.0321492
0.0404554
0.123783
0.543169
2.9115
2.06235
2.26613
1.40303
1.81851
1.98007
1.96607
2.10605
2.11599
2.02705
0.712887
0.500124
0.364728
0.238399
0.174632
0.108529
0.0740665
0.0690903
0.0294554
0.0291738
0.0298293
0.0318058
0.0427241
0.146949
0.147255
0.19881
0.391343
0.921126
5.71109
2.80932
0.872996
0.576682
0.396531
0.402232
0.446144
2.11079
1.71444
0.631953
0.28877
0.167806
0.0914277
0.0598257
0.0518386
0.029444
0.0291019
0.029731
0.0316631
0.0471223
0.188809
0.146442
0.0957564
0.103327
0.14129
0.299336
0.398875
0.55854
0.443563
0.34679
0.305588
0.223419
0.180288
0.330095
0.530365
0.371636
0.248317
0.127097
0.0856568
0.0773144
0.0294317
0.0290861
0.0296477
0.0315314
0.0517153
0.21049
0.169407
0.0959592
0.0872659
0.110493
0.159527
1.73376
3.75424
1.35084
0.528252
0.221193
0.132234
0.1059
0.109857
0.227541
0.292155
0.265587
0.182433
0.232767
0.22908
0.0294361
0.029167
0.0298671
0.0300895
0.03614
0.0717931
0.154641
0.147966
0.109081
0.110923
0.181134
2.67093
6.05352
2.07141
1.11943
0.723176
0.510843
0.477412
0.507321
0.585898
0.565228
0.498425
0.484787
0.605181
0.563606
0.029458
0.0290973
0.0287578
0.0283882
0.0278346
0.029509
0.0400905
0.092883
0.115025
0.123326
0.147629
0.814307
5.65059
5.93423
2.87619
1.83179
1.25533
1.38491
2.18719
1.96708
1.53029
1.32684
1.13224
1.04566
0.889093
0.0294632
0.0291031
0.0287479
0.0283528
0.0276959
0.0290902
0.0325748
0.379903
0.523993
0.385346
0.350055
0.308066
0.475348
0.571085
0.564578
0.606105
0.747154
1.53016
6.5176
3.76434
2.93838
2.04824
1.75873
1.58444
1.2904
0.0294545
0.0291024
0.0287484
0.0284191
0.0279314
0.0275441
0.0325906
2.48946
0.641401
0.299879
0.331588
0.37431
0.49277
0.502068
0.388751
0.41246
0.429977
1.12601
3.74072
2.35205
1.34653
1.25425
1.14159
1.08026
0.927186
0.0294533
0.0290979
0.0287506
0.0283864
0.0279924
0.0275197
0.0276872
0.0282572
0.0303576
0.0423377
0.0576943
0.0781899
0.10267
0.134271
0.175889
0.202985
0.248845
0.333263
0.477571
0.552318
0.39173
0.383654
0.362546
0.351747
0.337721
0.029264
0.028048
0.0273587
0.0276306
0.0282587
0.0297184
0.0316108
0.0362484
0.0429456
0.0553737
0.0775186
0.111022
0.152445
0.198996
0.251335
0.307555
0.364546
0.418676
0.467936
0.511684
0.549198
0.58132
0.605946
0.607888
0.602484
0.02929
0.0280736
0.0276871
0.0279781
0.0316256
0.0463015
0.0725536
0.0991516
0.112661
0.141605
0.20995
0.307969
0.403093
0.498511
0.611058
0.740583
0.875279
0.99419
1.08543
1.15963
1.2108
1.23047
1.22669
1.18715
1.03996
0.0293023
0.0281436
0.0278926
0.0282913
0.0393792
0.142977
0.188442
0.173449
0.121564
0.104667
0.132353
0.179195
0.246872
0.349749
0.485653
0.637978
0.770466
0.854096
0.909088
0.954992
0.981417
0.992533
0.817558
0.553494
0.530433
0.0293162
0.0282056
0.027966
0.0284143
0.0354317
0.107557
0.139621
0.12152
0.0940131
0.078099
0.0685442
0.0847142
0.129526
0.134094
0.105382
0.0860811
0.080528
0.0791828
0.0786218
0.0804823
0.0840071
0.0868281
0.0745376
0.0795332
0.09449
0.0293424
0.0282076
0.0282526
0.0296981
0.0464417
0.18692
0.324999
0.392449
0.67311
0.668824
0.362772
0.245252
0.272467
0.22436
0.130566
0.067274
0.0435422
0.03604
0.0327006
0.0327847
0.0368441
0.0425645
0.0443053
0.0454032
0.0515392
0.029321
0.0282264
0.0287078
0.0334349
0.204658
1.01051
0.880627
2.43104
3.26008
2.04585
2.11558
0.872457
0.257938
0.183463
0.131174
0.0831193
0.0549227
0.0393262
0.0324006
0.0312916
0.034537
0.0406663
0.0414401
0.038979
0.0434027
0.0293117
0.0281273
0.0285171
0.0334857
0.237555
0.811026
0.708071
2.44293
0.638744
0.334262
0.270741
0.233125
0.14818
0.0653251
0.0350585
0.0326423
0.0348914
0.0380906
0.0385836
0.0372397
0.0402882
0.0292887
0.0280774
0.0279392
0.029486
0.0405956
0.113242
0.483663
5.62195
0.891657
1.43511
1.0726
0.563703
0.249264
0.0842144
0.0376635
0.0359409
0.0389948
0.0415977
0.0410422
0.0392028
0.0428676
0.0292835
0.0280359
0.0276477
0.0278159
0.0301493
0.0572356
0.601624
2.90475
1.60348
1.83892
1.10969
0.522496
0.207757
0.066637
0.0359471
0.0367539
0.0402877
0.043084
0.0416197
0.039046
0.0427341
0.0292713
0.0280259
0.0275511
0.0273795
0.03055
0.0665965
0.181941
3.02118
4.25957
3.04522
1.53596
0.634965
0.430821
0.350923
0.346683
0.258745
0.128266
0.052639
0.0357628
0.035726
0.0381681
0.0407584
0.0400332
0.0380089
0.0413839
0.0292436
0.0280488
0.0275069
0.0272774
0.0342604
0.0863178
0.224411
1.58258
1.46769
0.994776
0.495968
0.20104
0.125707
0.139337
0.163003
0.165214
0.142641
0.102331
0.076867
0.0622037
0.0526375
0.0468726
0.0416
0.0381538
0.0404697
0.0292062
0.0280869
0.0274371
0.0272127
0.040973
0.10921
0.133717
0.573674
1.08702
0.799968
0.402576
0.23331
0.176699
0.176841
0.189907
0.223543
0.253669
0.232727
0.186736
0.153791
0.117963
0.0836349
0.0494984
0.0376794
0.0369382
0.0291744
0.0281323
0.0273437
0.0272687
0.0485136
0.131044
0.0934449
0.0831628
0.110237
0.1486
0.268466
0.292836
0.276382
0.211754
0.144162
0.115283
0.120451
0.134733
0.162292
0.136754
0.111226
0.0818295
0.0484274
0.0371588
0.0363273
0.0291717
0.0281376
0.0272276
0.0274192
0.0571297
0.161327
0.104418
0.0577665
0.0482992
0.0528236
0.0785309
0.132077
0.182495
0.164284
0.112126
0.0887271
0.0821419
0.0752403
0.0775221
0.098976
0.094955
0.073299
0.0536815
0.0691286
0.0745976
0.0291714
0.0281347
0.0271762
0.0275578
0.0633029
0.188281
0.124386
0.0632936
0.04344
0.0445067
0.0579782
0.13654
0.649688
0.491044
0.238763
0.105872
0.0726425
0.0683946
0.0738651
0.0991418
0.126163
0.134496
0.18012
0.31029
0.295827
0.029228
0.0280002
0.0273624
0.0266412
0.0354028
0.0856352
0.146518
0.121256
0.0754287
0.0647929
0.0829081
0.305321
0.724692
0.70389
0.561034
0.434461
0.405127
0.439371
0.511104
0.573547
0.588232
0.591799
0.689096
0.664904
0.642377
0.0292744
0.027918
0.027069
0.0256892
0.0251834
0.0283785
0.0423169
0.0657187
0.093084
0.097007
0.109737
0.177216
0.271303
0.31712
0.469985
0.563781
0.498046
0.664673
0.960301
1.02722
1.00322
1.0016
0.944333
0.914426
0.845203
0.0292702
0.0279618
0.0268554
0.0260703
0.0247674
0.0247391
0.0271573
0.0543567
0.0930224
0.12745
0.143359
0.167076
0.194586
0.213573
0.234788
0.257326
0.27705
0.419248
0.923102
0.903884
0.96412
0.978886
1.00052
0.964338
0.932314
0.0292412
0.0280069
0.026839
0.0259506
0.0251132
0.0243042
0.0246778
0.0328148
0.048368
0.0697487
0.101938
0.147087
0.186191
0.215695
0.2231
0.231951
0.242043
0.315724
0.501716
0.502394
0.563575
0.591316
0.593199
0.60676
0.609158
0.0292414
0.0279937
0.0268943
0.0258696
0.0251813
0.0243493
0.0240314
0.0241799
0.0256812
0.0291699
0.0367029
0.0500633
0.072006
0.110792
0.148049
0.182475
0.203594
0.232544
0.255591
0.267725
0.278761
0.278194
0.279029
0.280007
0.277703
0.0292907
0.0279168
0.0269901
0.0265809
0.0265759
0.0269808
0.0283904
0.0314792
0.0377472
0.0505873
0.0738652
0.109853
0.155917
0.210732
0.272195
0.335389
0.396488
0.452519
0.502266
0.546141
0.58405
0.616151
0.644812
0.637724
0.632713
0.0293064
0.0279403
0.0272654
0.0268542
0.0272941
0.0328824
0.0468187
0.0641492
0.080375
0.120577
0.199972
0.311483
0.428845
0.546665
0.670578
0.800458
0.928857
1.04069
1.1253
1.19233
1.2387
1.25709
1.24877
1.19724
1.05075
0.0293084
0.0279996
0.0274128
0.0268493
0.0295621
0.0589995
0.0750908
0.0673504
0.063509
0.0847053
0.135298
0.202758
0.279365
0.37803
0.506338
0.646483
0.769926
0.85013
0.901384
0.942539
0.963746
0.972111
0.799196
0.543302
0.527383
0.0293066
0.028075
0.027464
0.0270827
0.0300725
0.0509662
0.0598573
0.0549519
0.0522092
0.0534398
0.0528066
0.0487373
0.0506308
0.0561348
0.058728
0.0610544
0.0653297
0.067642
0.0690254
0.0708272
0.0720884
0.0723628
0.0640173
0.0682313
0.0836046
0.0293327
0.0280774
0.0275181
0.0276875
0.0332153
0.0604391
0.0967726
0.148313
0.42147
0.454157
0.247188
0.126404
0.0824597
0.0671466
0.0520611
0.0390172
0.0313249
0.0274205
0.0255393
0.0248882
0.0250119
0.0255622
0.0256563
0.0272456
0.0299996
0.0293545
0.0279906
0.0277913
0.0289218
0.0438829
0.129192
0.240998
2.78801
9.72754
5.40763
1.85357
0.474973
0.169802
0.105332
0.0787568
0.0581319
0.0414506
0.0301265
0.0255628
0.0243995
0.0244596
0.025059
0.0250856
0.0246112
0.0255051
0.0293198
0.0279869
0.0276591
0.0288242
0.0415908
0.114722
0.364547
3.82082
0.50765
0.306794
0.262729
0.208053
0.133087
0.0591812
0.0286374
0.0246621
0.0244705
0.024796
0.0247566
0.0242294
0.024776
0.0292938
0.0279677
0.0273139
0.0274814
0.030322
0.0585771
0.529463
7.22053
0.999928
1.39546
0.611341
0.356166
0.200346
0.0785801
0.0304268
0.0251133
0.0249246
0.0251571
0.0250291
0.0245847
0.02524
0.0292929
0.0279217
0.027204
0.0266709
0.0284726
0.0575982
0.748981
2.63399
2.64184
1.14235
0.593187
0.334196
0.166721
0.0594975
0.0280474
0.0250508
0.0250408
0.0253362
0.0251259
0.0246105
0.0252911
0.0292748
0.0279226
0.0271799
0.0263832
0.0300373
0.066616
0.191607
2.83576
3.38087
2.22643
1.20504
0.495379
0.302401
0.30454
0.298711
0.216464
0.109279
0.0430608
0.0269592
0.025132
0.0249843
0.0252066
0.0250448
0.0244971
0.0251473
0.0292304
0.0279738
0.0271689
0.0263762
0.0345001
0.0801594
0.0845716
0.168339
0.359359
0.38732
0.236627
0.115834
0.0906769
0.0916794
0.0864718
0.0718624
0.0546972
0.0421156
0.0359305
0.0320813
0.0290015
0.0270573
0.0258319
0.0250517
0.0253483
0.0291723
0.0280623
0.0270818
0.026465
0.0427298
0.100903
0.0842353
0.0973259
0.180439
0.178559
0.110022
0.0769805
0.0740991
0.07312
0.0658818
0.0627274
0.0640826
0.0634283
0.0574343
0.0512906
0.0438127
0.035728
0.028753
0.0258637
0.0256821
0.029135
0.0281366
0.0269339
0.0266737
0.0529668
0.123731
0.0839885
0.0544953
0.0512446
0.0583373
0.0655282
0.0753204
0.0863283
0.0771632
0.0583898
0.0483681
0.0482503
0.0510676
0.0506567
0.0491146
0.0446961
0.0374811
0.0296812
0.028858
0.0301357
0.0291433
0.0281337
0.0267808
0.0270155
0.0651762
0.153667
0.0968827
0.0520359
0.0356373
0.0348678
0.0406518
0.0522629
0.0680827
0.0657112
0.0501656
0.040862
0.0379945
0.0364946
0.0358494
0.0375333
0.0388033
0.0359651
0.0366235
0.0740775
0.0860488
0.0291463
0.0281302
0.026733
0.0271904
0.0723511
0.184515
0.116182
0.0584268
0.0371326
0.0345455
0.0388862
0.0513288
0.101952
0.121797
0.0873754
0.0621623
0.0615614
0.0726498
0.088096
0.108505
0.131358
0.150939
0.239438
0.402741
0.37892
0.0292116
0.0279661
0.0270056
0.026132
0.0368161
0.0936082
0.144363
0.115642
0.0696619
0.0557141
0.060076
0.0923342
0.203192
0.294589
0.323654
0.339037
0.387024
0.458639
0.549691
0.631521
0.677225
0.701986
0.770187
0.743495
0.724537
0.0292817
0.027823
0.0269141
0.0251232
0.024897
0.0287508
0.0438074
0.0693949
0.0889116
0.0926045
0.0933423
0.106342
0.132769
0.165183
0.217758
0.277422
0.33842
0.408478
0.53446
0.659424
0.730496
0.774011
0.779914
0.793757
0.781851
0.029294
0.027855
0.026639
0.0256895
0.0241781
0.0241494
0.025846
0.0318556
0.0448062
0.0703727
0.0944175
0.114776
0.132042
0.147181
0.166058
0.185536
0.203567
0.23835
0.306278
0.407389
0.510477
0.592701
0.650745
0.69443
0.698658
0.0292512
0.027927
0.0265944
0.0255471
0.0245942
0.0234781
0.0234529
0.0242537
0.0277857
0.0347779
0.052151
0.0843425
0.115428
0.145247
0.16824
0.186425
0.197887
0.216427
0.239806
0.274949
0.30693
0.343651
0.375972
0.421992
0.433586
0.0292483
0.0279159
0.02666
0.0254602
0.0246096
0.0236999
0.0230238
0.0230377
0.023631
0.0252184
0.0293531
0.0380437
0.0589543
0.0918621
0.128703
0.161867
0.184502
0.203703
0.212346
0.216686
0.219679
0.223804
0.224681
0.230331
0.230274
0.0293121
0.0278805
0.0269313
0.0263162
0.0257806
0.0257631
0.0268541
0.0298438
0.0364553
0.0502811
0.0750477
0.113746
0.163821
0.224542
0.29275
0.361057
0.42524
0.483057
0.533932
0.578347
0.616122
0.646789
0.667412
0.66829
0.66073
0.0293065
0.0279282
0.0271595
0.0265016
0.0263259
0.0297484
0.0398287
0.0542659
0.0719758
0.116742
0.20045
0.31957
0.450576
0.585938
0.719864
0.84951
0.971805
1.07597
1.15653
1.21677
1.25633
1.2752
1.25767
1.20391
1.07026
0.0293099
0.0279603
0.0273348
0.0264387
0.0277224
0.0484584
0.0568785
0.0483326
0.0506426
0.0788134
0.136605
0.218143
0.311042
0.417928
0.541282
0.666675
0.776694
0.850521
0.898196
0.934543
0.951181
0.957836
0.786846
0.536686
0.525775
0.0293062
0.0280217
0.0273861
0.0266616
0.028536
0.0433809
0.0460741
0.0392978
0.0371317
0.0388761
0.0424472
0.0413462
0.0408202
0.0429155
0.0475432
0.0532461
0.0583035
0.0628383
0.0655568
0.0676103
0.0687767
0.0691692
0.0589864
0.0667172
0.0820285
0.0293095
0.0280555
0.027407
0.0269981
0.0294764
0.0425181
0.052188
0.0737812
0.198973
0.224628
0.142668
0.0843338
0.0534789
0.0415073
0.0359248
0.0314816
0.0278255
0.0254626
0.0242986
0.0237632
0.0234874
0.0233767
0.0232534
0.0241845
0.0259382
0.0293148
0.0280396
0.0274089
0.0274585
0.0311478
0.047072
0.0959194
2.21374
5.0891
2.29092
0.863232
0.326216
0.136855
0.0838412
0.0621379
0.047058
0.0350463
0.0272636
0.0242604
0.0234123
0.0230817
0.0229277
0.0227588
0.0219855
0.0218045
0.0293034
0.0279928
0.0273411
0.0273824
0.0299695
0.0455654
0.232016
6.62922
0.622795
0.358831
0.222317
0.147983
0.0931655
0.0451433
0.0263414
0.0235325
0.023069
0.0228882
0.0227107
0.021944
0.0214028
0.0292991
0.0279357
0.0272273
0.0268531
0.0280127
0.0458184
0.475855
13.936
2.79604
0.460559
0.271822
0.177416
0.112335
0.0523466
0.027151
0.0235868
0.0230764
0.0229041
0.0227247
0.021993
0.0215001
0.0292978
0.0278992
0.0271558
0.0264044
0.0280435
0.0556264
0.681655
1.35431
1.76194
0.448571
0.277163
0.172182
0.0973641
0.0429077
0.0257917
0.023466
0.0230368
0.0229331
0.0227607
0.0220385
0.0215694
0.0292723
0.0279082
0.0271581
0.0262251
0.0299438
0.0654007
0.147115
2.00259
2.12908
1.29366
0.713392
0.429692
0.28712
0.248542
0.194664
0.132808
0.0723821
0.0344859
0.0249251
0.0234491
0.0230437
0.022974
0.0227927
0.0221135
0.0216397
0.0292214
0.027971
0.0271489
0.0262406
0.0342929
0.0774599
0.0711292
0.0804594
0.144182
0.175495
0.126063
0.0793793
0.0721677
0.070833
0.0628805
0.0488165
0.0356445
0.0285667
0.0259978
0.0247725
0.0238942
0.0233793
0.0230721
0.0223901
0.0218984
0.0291573
0.0280762
0.0270557
0.026403
0.042238
0.0965912
0.0754807
0.0548643
0.0545742
0.059708
0.0523598
0.0448438
0.0436995
0.0424118
0.0382629
0.0338286
0.03159
0.0305353
0.0292804
0.0279263
0.026429
0.0250494
0.0238806
0.0229448
0.0227047
0.0291287
0.0281442
0.0268828
0.0267008
0.0541298
0.120916
0.0832037
0.0486849
0.0365846
0.0359432
0.038228
0.0394947
0.0415481
0.0397914
0.0350141
0.0310137
0.0295485
0.0291144
0.0284021
0.0277176
0.0268757
0.0257521
0.0243715
0.0269299
0.0293122
0.0291521
0.0281206
0.0267292
0.0270252
0.0687963
0.152766
0.0962882
0.0526622
0.0338913
0.0314794
0.0334934
0.0358141
0.0389017
0.0379151
0.0334492
0.0297873
0.0281001
0.0274416
0.0271253
0.0272851
0.0278277
0.028008
0.0338931
0.0852399
0.101636
0.0291571
0.0281145
0.0266953
0.0273548
0.0775082
0.187597
0.116217
0.0586307
0.0370087
0.0334179
0.0351525
0.0384994
0.0456031
0.0518689
0.0507546
0.0532888
0.0654831
0.0847868
0.108093
0.13498
0.163475
0.191984
0.305006
0.484782
0.455939
0.029203
0.0279796
0.0269703
0.0261671
0.0380467
0.0988966
0.147289
0.115413
0.0694293
0.0540897
0.0554936
0.0688559
0.110314
0.172944
0.233178
0.299355
0.384795
0.481016
0.58479
0.679223
0.746824
0.793732
0.825152
0.822759
0.789733
0.0292686
0.0278426
0.02689
0.0250769
0.0249603
0.0294149
0.0454594
0.0729704
0.0889983
0.0924995
0.09091
0.0943277
0.103321
0.129301
0.17422
0.228389
0.287519
0.350439
0.435111
0.525414
0.604675
0.663197
0.702921
0.733999
0.743014
0.0293067
0.0278299
0.0266515
0.0256242
0.0240986
0.024128
0.0259792
0.0314304
0.0407356
0.0632397
0.0841913
0.101837
0.11371
0.126624
0.143007
0.158409
0.177741
0.20611
0.243808
0.292356
0.359217
0.423273
0.480098
0.530304
0.562905
0.0292582
0.0279179
0.0265751
0.0254998
0.0245243
0.0233204
0.0232433
0.023996
0.0261752
0.0314649
0.0428392
0.0697469
0.0968406
0.124168
0.146901
0.164005
0.177122
0.189772
0.202047
0.214796
0.231198
0.254478
0.279418
0.308436
0.330229
0.0292487
0.0279178
0.0266343
0.0254137
0.0245205
0.0235913
0.0228012
0.0228103
0.0233036
0.0245419
0.0281553
0.0346878
0.0546062
0.0864228
0.122662
0.153169
0.176216
0.189925
0.191858
0.195674
0.195537
0.194824
0.195528
0.197162
0.198314
0.0293189
0.0278721
0.0268687
0.0262484
0.0253816
0.0251247
0.0263164
0.0297783
0.0375508
0.0532022
0.080416
0.122419
0.176355
0.241139
0.313376
0.385425
0.452469
0.512661
0.565537
0.611183
0.649059
0.679221
0.698619
0.697586
0.689361
0.0293024
0.0279184
0.0271192
0.0264149
0.0258524
0.0288869
0.0380136
0.0528576
0.072729
0.120893
0.207854
0.332301
0.473067
0.621241
0.763199
0.895065
1.01465
1.11412
1.19137
1.25077
1.28115
1.30821
1.28751
1.21157
1.11028
0.0293054
0.0279353
0.0272887
0.0262969
0.0272549
0.0464001
0.054356
0.046397
0.0494794
0.0780949
0.137427
0.226382
0.331785
0.449073
0.571338
0.687352
0.78545
0.852184
0.896928
0.929985
0.94371
0.94809
0.778659
0.534753
0.530595
0.0293038
0.02798
0.0273231
0.0264497
0.0279336
0.0417565
0.0440273
0.0364344
0.0324131
0.033201
0.0368404
0.0384607
0.0391237
0.0414856
0.0463199
0.0516913
0.0563073
0.0602732
0.0641423
0.0666019
0.0677223
0.0682197
0.0588827
0.0680241
0.0843691
0.0293057
0.0279999
0.027355
0.0266472
0.0281384
0.0388109
0.0434313
0.0477916
0.0755733
0.0911816
0.0770202
0.0571754
0.0426722
0.0356468
0.0322873
0.0295439
0.0270771
0.0254013
0.0245011
0.0240265
0.0237148
0.0235313
0.0235998
0.0252624
0.0269588
0.0293045
0.0279895
0.027348
0.0268634
0.0283369
0.0376129
0.0585138
0.515019
1.91607
0.974642
0.4077
0.167713
0.0831407
0.0591483
0.0475301
0.0379412
0.0304496
0.0260517
0.0243012
0.0236746
0.0233347
0.0231012
0.0231118
0.0230534
0.0226266
0.0293012
0.0279519
0.0272772
0.0268264
0.0278419
0.037306
0.118048
5.21094
8.89706
3.58385
1.2251
0.398516
0.148749
0.115836
0.0952778
0.0725904
0.0498894
0.0318773
0.0250969
0.0237053
0.0233217
0.023086
0.0230843
0.0229367
0.0223171
0.0293003
0.0279082
0.0271822
0.0265577
0.0273528
0.0424643
0.239879
7.30959
10.0157
3.48961
1.20654
0.411185
0.156309
0.161824
0.133489
0.088475
0.0562103
0.0338059
0.0253517
0.0237057
0.023301
0.0230871
0.0230798
0.0229493
0.022344
0.0292949
0.0278833
0.0271367
0.0263071
0.0278978
0.0530125
0.309846
8.0784
5.75437
2.30407
0.878774
0.325068
0.162846
0.177528
0.135622
0.0871257
0.0525826
0.0314583
0.0248888
0.0236255
0.0232567
0.0230904
0.0231165
0.0230063
0.0224096
0.0292648
0.0279015
0.0271499
0.0261816
0.0298254
0.0632127
0.0941124
0.559279
0.907615
0.572382
0.283458
0.136716
0.127367
0.123074
0.0978046
0.068574
0.0430538
0.0285698
0.0244929
0.0235749
0.0232273
0.0231205
0.02316
0.0231067
0.0225163
0.0292117
0.0279732
0.027141
0.0262232
0.0339901
0.0755401
0.0671205
0.0605275
0.0726436
0.0860496
0.0727119
0.0566932
0.0550954
0.0536594
0.0473514
0.0379752
0.0300035
0.0259329
0.0244148
0.0237405
0.023361
0.0232118
0.0232887
0.0232842
0.0227437
0.0291479
0.028087
0.0270433
0.0264233
0.0418304
0.0944405
0.0738049
0.0476743
0.0383286
0.0377278
0.0384456
0.0370943
0.0366104
0.035485
0.0327995
0.0295151
0.0270738
0.0256783
0.0248264
0.0242003
0.0237547
0.0235362
0.0235508
0.0237348
0.0235633
0.0291324
0.0281397
0.0268499
0.0267812