/*--------------------------------*- C++ -*----------------------------------*\
  =========                 |
  \\      /  F ield         | OpenFOAM: The Open Source CFD Toolbox
   \\    /   O peration     | Website:  https://openfoam.org
    \\  /    A nd           | Version:  6
     \\/     M anipulation  |
\*---------------------------------------------------------------------------*/
FoamFile
{
    version     2.0;
    format      ascii;
    class       volScalarField;
    location    "30";
    object      k;
}
// * * * * * * * * * * * * * * * * * * * * * * * * * * * * * * * * * * * * * //

dimensions      [0 2 -2 0 0 0 0];

internalField   nonuniform List<scalar> 
230684
(
1.42613
1.31685
1.20608
1.13771
1.04603
0.954559
0.893053
1.00525
1.07919
1.2521
1.48332
1.72875
1.94429
2.21725
2.42508
2.60184
2.80962
3.02996
3.25649
3.46165
3.64686
3.81341
3.93649
3.98932
3.99054
1.41985
1.32707
1.20058
1.03666
0.869561
0.843968
1.02459
1.29134
1.21838
1.29625
1.39061
1.47331
1.62482
1.88708
2.22904
2.61687
3.02138
3.43098
3.88178
4.15621
4.2938
4.36197
4.36417
6.46714
5.55983
1.42209
1.32148
1.21566
0.950874
0.827979
1.74002
1.38384
2.26762
1.74983
1.26908
1.24663
1.34255
1.44287
1.57622
1.79964
2.2718
2.78405
3.0364
3.0324
3.02053
3.00076
2.95943
3.73958
3.95219
3.45743
1.40847
1.30451
1.10831
0.867591
0.644507
1.85518
1.55081
1.59924
2.0214
2.22805
1.76589
2.68788
1.68305
1.21211
0.92858
1.25651
1.19661
1.14758
1.23116
1.37284
1.48175
1.51828
2.01399
2.43711
2.0968
1.4208
1.32424
1.19641
0.91402
0.708873
0.809385
0.980203
0.99987
1.53175
2.16623
2.02302
2.28824
1.76836
1.32466
1.12069
1.36615
1.40136
1.34913
1.47261
1.61995
1.6999
1.7236
2.40359
2.70533
2.37938
1.42171
1.32307
1.2014
0.863418
0.482684
1.16196
0.85404
0.848975
1.69552
2.12402
2.00154
2.01967
2.00267
1.32754
1.30952
1.32592
1.26131
1.22245
1.00369
1.11829
1.30901
1.41261
2.01834
2.38868
2.02721
1.42214
1.32288
1.20287
0.862698
1.14518
1.10226
0.712197
0.72418
0.721558
0.679104
0.609722
1.01416
0.736261
1.6201
1.14535
0.991876
1.11231
1.29354
1.38732
1.44748
1.46866
1.46973
1.97202
2.19849
1.91483
1.42278
1.32206
1.21131
0.926094
0.67977
0.567236
0.515903
3.48785
2.39933
1.47526
1.01122
0.819362
1.40403
3.59925
2.85263
2.09279
1.65417
1.3863
1.24863
1.23971
1.28475
1.32738
1.85308
2.157
1.88676
1.42282
1.32191
1.21544
0.946917
0.735337
0.578079
0.521711
4.349
2.65004
1.52804
1.14407
1.05027
4.69909
3.31571
3.00313
2.24701
1.54576
1.20164
1.0876
1.09506
1.13823
1.18904
1.77089
2.17613
1.90192
1.42278
1.32197
1.21706
0.954163
0.744702
0.596697
0.58956
1.32561
2.99643
1.45507
1.81656
1.04246
2.56225
1.69274
1.1735
1.72855
1.96461
1.8399
1.69602
1.63271
1.51653
1.46894
2.01264
2.3283
2.01674
1.42282
1.32198
1.21806
0.952552
0.694157
0.645792
0.570386
1.96355
1.66064
1.11321
1.00845
1.38094
1.2272
1.20755
1.24964
1.74786
2.09165
2.11557
1.92042
1.72182
1.57762
1.52287
2.03697
2.32904
1.97684
1.42282
1.32223
1.22056
0.966455
0.770708
0.636831
0.94007
0.97446
1.4384
0.433164
0.668811
0.749014
0.861213
0.651399
0.684693
0.751067
0.903307
1.3504
1.21056
1.25032
1.41051
1.32984
1.54944
1.70123
1.49259
1.42282
1.32227
1.22205
0.975531
0.79234
0.691985
0.857143
1.46534
1.28551
1.27918
1.07159
0.498914
2.7391
0.488595
1.19114
0.981442
1.72133
0.809352
1.87637
1.28984
1.17079
1.67187
2.14198
1.61805
1.19304
1.42265
1.32232
1.22251
0.978277
0.795069
0.76401
1.31554
1.70816
1.76354
1.56887
1.46054
1.52921
1.5844
1.58479
1.87853
1.17091
1.31069
1.37271
1.49723
2.21559
1.94343
1.24522
0.919848
0.970055
1.26333
1.42233
1.32268
1.22233
0.974758
0.782069
0.848066
1.70485
2.02006
2.10274
2.01591
1.85463
4.28862
2.33771
1.32013
1.18264
1.38721
1.38891
1.37012
1.49416
1.7427
1.79874
1.65528
1.73412
1.84802
1.92699
1.41484
1.33657
1.19463
1.02835
0.913289
0.825604
1.08076
1.81411
2.18816
2.15622
2.02229
3.16079
2.13536
1.44977
1.42059
1.68906
1.39281
2.41255
1.50632
1.83112
1.28345
0.964724
0.755355
2.19527
2.22093
1.42643
1.316
1.20207
1.12728
1.05078
0.978129
0.915849
0.856371
1.39286
1.40506
1.50502
1.36246
2.32072
1.49201
1.02424
0.897681
0.997208
2.03022
1.80562
1.49284
1.01271
0.809515
1.59832
3.87603
3.49709
1.43309
1.30355
1.21601
1.11419
1.06566
0.955042
0.836798
0.80931
1.3653
1.84331
1.66739
1.51092
1.4703
1.39755
1.25926
1.21401
1.99651
1.56778
6.10502
3.9875
1.62548
5.68738
5.36463
5.0085
4.55006
1.42902
1.31111
1.20665
1.13028
1.0484
1.00204
0.86962
1.10842
1.14912
1.20698
1.23717
2.29709
2.57168
2.76429
2.25393
1.86596
1.56901
1.61141
5.99226
4.26889
4.08288
4.88054
4.79696
4.72067
4.46438
1.43026
1.30884
1.2102
1.12616
1.05738
0.99944
0.94356
0.919174
0.872605
0.850562
0.858035
0.874002
0.908722
1.18794
1.35483
1.49699
1.48532
1.53893
1.87557
2.02642
2.24679
2.28507
2.33522
2.39108
2.44362
1.47485
1.42689
1.36558
1.33955
1.31999
1.27853
1.21161
1.58559
1.73294
1.98817
2.39462
2.89336
3.42681
3.95935
4.53114
5.14113
5.78012
6.34282
6.88626
7.29834
7.61989
7.95879
8.06854
7.95725
7.8091
1.47471
1.42818
1.36854
1.31254
1.53873
1.45756
1.43451
2.81399
2.96401
3.51642
3.75699
4.03694
4.59866
5.34411
6.27594
7.37515
8.50626
9.46267
10.1692
10.581
10.8437
10.9044
10.8504
11.3081
10.3315
1.47477
1.42966
1.3697
1.26704
2.54227
8.64338
7.19898
4.81593
3.09746
2.73765
3.54517
4.7266
6.29318
7.8268
8.78686
9.13527
9.18849
9.22503
9.23906
9.22729
8.34015
6.69993
6.26613
1.4779
1.42489
1.33815
1.34647
1.78362
4.06143
3.81013
3.00936
3.15944
4.36558
3.30708
3.03585
2.68948
2.50527
2.59113
3.02658
3.39874
3.49254
3.30834
3.12705
2.95341
1.47549
1.42994
1.36579
1.25109
1.38789
2.19816
2.67474
4.94102
6.51731
5.51348
4.96147
4.65353
2.61729
2.09566
1.92115
2.38459
3.2298
3.90022
4.10973
4.12014
3.55669
3.07985
1.47592
1.42729
1.3816
1.33565
1.52696
5.85458
6.16965
5.26253
5.45097
4.8086
3.96289
2.68776
2.36645
1.90715
1.68838
2.2588
3.12872
3.65771
3.45132
2.96796
2.6618
1.47571
1.42575
1.38019
1.36952
2.38159
0.460379
2.08965
3.26551
3.29366
3.34414
3.29248
2.94225
2.82532
2.92582
3.07497
3.18341
3.1321
2.7598
2.504
1.4743
1.42744
1.36646
1.26753
1.40452
1.42392
2.1124
2.58381
5.89904
7.53779
6.77605
4.71636
3.04308
2.39461
2.62417
2.90493
3.12532
3.23269
3.22917
2.86701
2.49627
1.47416
1.4273
1.36289
1.24755
1.1308
1.21188
2.50306
7.1194
8.72742
7.56566
4.72687
2.85736
2.22305
2.45461
2.832
3.07192
3.25784
3.26296
2.89678
2.52297
1.4742
1.42725
1.36176
1.24644
1.12825
1.3793
2.53904
9.89725
8.48772
8.11561
7.18101
1.79226
3.60417
3.38508
5.0317
5.24283
4.27428
3.37178
3.0558
3.10693
3.19918
3.31728
3.25504
2.93503
2.62804
1.47406
1.42744
1.36196
1.25037
1.48674
2.91069
3.26527
1.56999
1.58914
2.49985
3.08177
3.9736
4.29254
4.03727
3.7532
3.72179
3.68279
3.60231
3.40306
2.82136
2.60079
1.47381
1.42764
1.3631
1.25254
1.18905
2.15135
3.03112
2.93656
0.625728
3.17931
3.94681
4.21527
2.60888
2.14116
2.31844
2.29272
1.96484
1.85794
1.47364
1.42777
1.36403
1.25596
1.2014
2.62791
3.16747
4.88435
2.44224
4.24157
4.92423
2.42706
1.04095
1.53473
2.95266
0.376904
1.87357
2.17779
1.71862
1.54669
1.41274
1.47355
1.42777
1.36388
1.25875
1.24065
3.19255
4.21857
3.44275
3.02316
2.82493
3.09166
3.9793
2.90539
2.66387
3.7275
1.88239
2.5943
2.38493
5.35414
2.73009
1.69393
1.56419
1.48307
1.47377
1.42727
1.36425
1.25797
1.31418
3.55851
4.64839
3.77545
3.49979
3.76824
4.01562
12.981
4.99908
2.86519
2.68125
2.40272
2.53928
3.03213
3.35513
3.41358
2.36688
3.47009
2.13108
3.04654
1.47318
1.42771
1.3666
1.28086
1.22486
1.64631
3.13064
3.68868
3.52238
3.46787
3.91211
8.81269
3.46042
4.30977
3.38652
3.29375
2.81426
5.97795
5.51476
1.47687
1.42284
1.36237
1.30648
1.24232
1.18592
1.25085
1.96568
2.77876
2.84064
3.15877
5.20144
0.3081
2.07782
8.99504
7.71982
6.56839
5.21674
5.59244
7.09924
8.83843
8.11121
1.47797
1.42177
1.3627
1.30832
1.24751
1.19232
1.11517
2.73792
3.17526
3.3054
2.87122
3.15382
4.27958
4.35294
3.72409
3.50111
7.90688
10.1841
11.0051
13.867
12.2672
11.5038
10.4082
1.47747
1.4217
1.36582
1.30404
1.25386
1.19799
1.21761
2.84986
2.22999
1.9608
2.28688
4.17274
5.74262
4.13403
3.83364
4.03865
8.86017
12.3254
14.5885
10.5619
10.0692
9.70066
8.80374
1.47785
1.42091
1.36747
1.3028
1.25711
1.19699
1.16828
1.13749
1.08224
1.11988
1.10223
1.27544
1.91416
2.5286
2.95124
3.17152
3.12131
3.3998
5.73515
4.76167
4.45557
4.41366
4.46129
4.42777
4.40373
1.47901
1.44732
1.41103
1.41761
1.42245
1.42153
1.42004
1.65153
1.78145
2.01452
2.46268
3.27617
4.1047
4.87103
5.69059
6.5447
7.38187
8.09338
8.72729
9.22592
9.58323
9.96641
10.0105
10.0356
9.71249
1.48071
1.44645
1.41758
1.42703
1.68084
1.76889
2.54536
2.78878
2.96239
3.54607
4.27621
5.18586
6.14528
7.1704
8.40561
9.77051
11.0658
12.0817
12.7702
13.1593
13.5121
13.7933
13.6772
13.4226
12.3091
1.48123
1.44832
1.42467
1.42316
2.83336
4.89464
4.40324
3.88671
3.26428
2.88758
2.84319
3.15636
4.23066
5.71973
7.41212
8.99187
10.0434
10.5639
10.8082
10.9644
11.0387
11.0527
9.71168
7.47083
7.39051
1.482
1.45039
1.42693
1.40481
1.88702
4.91259
4.1241
3.54032
3.0192
2.596
2.55277
5.23002
4.30216
3.38683
2.91193
2.81292
2.63043
2.4761
2.47201
2.52945
2.6902
2.80785
2.64443
2.54386
2.72007
1.4846
1.44539
1.43182
1.44439
1.94942
3.21465
3.72865
5.54546
6.81597
5.80038
4.65618
7.24669
5.83468
4.34114
2.86671
2.20039
1.88011
1.68358
1.63859
1.80733
2.17122
2.50823
2.48957
2.29966
2.29694
1.48346
1.44693
1.45555
1.60976
4.17559
8.43658
10.3556
7.7492
5.60641
4.61064
3.60786
2.848
2.35102
1.97682
1.6966
1.59593
1.71972
2.01011
2.3538
2.31968
2.06147
2.0427
1.48385
1.44187
1.44967
1.65775
9.01875
2.64081
3.82293
3.62594
3.5822
3.51441
2.69511
1.98141
1.84209
1.93455
2.06539
2.19449
2.15764
1.98591
1.9468
1.48154
1.44411
1.42508
1.45056
1.84994
2.1887
2.86263
2.95927
6.01134
7.29061
6.90414
4.63764
2.72507
1.8581
1.8518
2.07516
2.24994
2.35611
2.27682
2.08109
2.01598
1.48074
1.44411
1.41617
1.38536
1.39648
1.83218
5.13192
2.82203
6.61784
8.68288
7.41625
4.35883
2.43889
1.76625
1.83485
2.09894
2.29894
2.41997
2.31164
2.0781
2.02655
1.48039
1.44408
1.41431
1.37416
1.39639
2.13629
3.70085
12.5975
11.1848
11.0719
4.90194
2.31318
3.04915
3.4649
4.50388
4.05358
2.76726
2.02575
1.91909
2.03343
2.17342
2.30066
2.24983
2.05575
2.01574
1.47969
1.44494
1.41376
1.37332
1.49403
2.74391
8.50777
3.67377
2.5425
2.13907
1.72829
1.67625
1.99271
2.27488
3.07706
3.29489
3.31673
2.76985
2.38259
2.29408
2.33951
2.38548
2.2719
2.02868
1.99022
1.47885
1.44608
1.41249
1.37171
1.59853
3.06771
4.06028
5.7734
3.6733
1.99597
1.28959
1.43445
1.49433
1.48327
1.54257
1.55332
2.23264
3.41832
3.12044
2.53697
1.99027
2.05624
1.97621
1.73989
1.69747
1.4782
1.44709
1.41079
1.37239
1.7084
3.55318
3.18093
2.91721
2.9321
3.94737
3.21778
3.02918
3.5493
3.464
2.65536
1.67545
1.33715
4.76932
5.20414
2.61977
1.93124
1.76422
1.7262
1.55672
1.47702
1.47795
1.4476
1.40844
1.37803
1.82639
4.10684
3.47888
2.49712
2.39976
2.42613
2.69992
2.87071
3.49294
3.40248
3.15057
2.77519
2.31832
2.12198
2.61961
2.48401
2.15243
1.87679
1.66022
1.80446
1.85677
1.47817
1.4471
1.40695
1.3824
1.96545
4.38784
3.78181
2.63037
2.35218
2.50384
2.855
9.11906
8.4667
5.77702
3.65854
2.51123
2.20015
2.11307
2.12416
2.62832
2.59861
2.41741
2.77521
4.41505
4.39877
1.47945
1.44377
1.41192
1.3633
1.49266
2.26171
3.65336
3.53841
2.87763
2.70558
2.99208
8.74928
9.88592
6.45429
5.27346
4.74736
4.34563
5.21342
5.71226
5.82316
5.74761
5.99162
6.7316
8.422
8.14286
1.48185
1.43998
1.40615
1.36062
1.3131
1.35217
1.56355
2.61462
2.968
3.03861
3.17668
5.94267
9.54705
11.7094
8.68563
7.66724
7.57893
9.03669
11.9131
11.6383
10.9537
11.2934
11.0629
10.8904
10.3442
1.48182
1.44134
1.40108
1.36444
1.31933
1.28156
1.31221
3.08894
3.73995
3.64184
3.5037
3.76817
4.63931
4.78115
4.79578
5.18745
6.35256
9.90286
18.0299
14.8457
14.3445
13.2884
12.5828
12.3258
11.5649
1.48114
1.44214
1.40207
1.36042
1.32503
1.28263
1.31843
3.42823
3.3536
2.49018
3.24463
3.4792
4.26412
4.46632
4.37218
4.14114
4.21704
6.42544
11.7969
10.5962
9.13772
9.05677
9.18293
9.15337
9.04869
1.48119
1.44186
1.40328
1.35935
1.32563
1.285
1.26861
1.23972
1.23436
1.2765
1.37182
1.52005
1.92645
2.78555
3.4397
3.98319
4.23202
4.69043
5.87157
6.10592
5.6697
5.58779
5.52199
5.40926
5.34121
1.47961
1.44846
1.41994
1.42456
1.44771
1.46906
1.51394
1.59938
1.7516
2.02853
2.48655
3.3739
4.46884
5.45579
6.46713
7.48353
8.42388
9.18714
9.80934
10.34
10.5943
11.0035
11.0737
11.0803
10.8597
1.48114
1.44787
1.42817
1.43093
1.52016
1.75953
2.19889
2.5912
2.85787
3.53796
4.61034
5.89542
7.12431
8.31439
9.69852
11.1465
12.458
13.4656
14.1173
14.6268
14.9662
15.142
14.9903
14.2765
13.4943
1.48115
1.4509
1.43324
1.42906
1.71336
2.97972
3.1772
2.94423
2.63207
2.84821
3.3659
4.00968
4.90309
6.16347
7.76906
9.34614
10.4476
11.0403
11.3368
11.518
11.6014
11.6224
10.1091
7.73473
7.847
1.48205
1.45263
1.43498
1.43123
1.63247
2.70805
2.91214
2.68678
2.47052
2.38255
2.27741
2.43785
2.59117
2.55951
2.45635
2.46449
2.38347
2.27862
2.25741
2.25517
2.26947
2.30118
2.13538
2.16471
2.39976
1.48528
1.44764
1.44173
1.4647
1.84599
2.8713
3.4224
4.01534
6.28109
5.76701
4.23297
3.76347
3.71552
3.09029
2.39586
1.95538
1.67891
1.51174
1.44639
1.45411
1.50726
1.56539
1.56848
1.5506
1.63338
1.48474
1.44793
1.45547
1.57092
2.86232
4.46118
4.82791
12.9506
7.47811
7.55642
8.42078
4.96946
3.31619
3.03518
2.61464
2.14658
1.75888
1.52118
1.43596
1.43947
1.4872
1.54502
1.5406
1.49607
1.51926
1.48455
1.44426
1.45038
1.57617
3.1689
3.92563
4.35565
8.01162
2.87572
3.12398
3.38777
3.14709
2.31337
1.6678
1.47932
1.47177
1.49914
1.52756
1.51769
1.48403
1.49115
1.48172
1.44707
1.43391
1.4617
1.6873
2.38107
5.56813
4.03104
4.90979
5.72195
5.12094
3.7306
2.41775
1.68917
1.49774
1.51114
1.54499
1.56461
1.54422
1.50868
1.51921
1.48066
1.44708
1.42614
1.41119
1.48858
2.23765
8.3162
3.0566
6.1824
6.78107
5.8183
3.66959
2.18599
1.57972
1.4814
1.51821
1.55654
1.58248
1.55623
1.51281
1.52568
1.48002
1.44741
1.42411
1.39901
1.52829
2.47034
3.96848
13.2743
12.0543
9.62139
5.53655
2.0747
2.34528
3.70042
3.95471
3.26159
2.1537
1.60687
1.49392
1.49988
1.52869
1.56099
1.55019
1.51394
1.52285
1.47904
1.44885
1.42211
1.39923
1.66816
2.85799
3.83524
6.16744
6.48824
5.58762
3.90496
2.63228
2.3977
2.66957
2.82404
2.72048
2.42437
2.03782
1.79356
1.66902
1.63558
1.62879
1.58608
1.53146
1.52593
1.47832
1.44989
1.41886
1.40141
1.89993
3.31779
3.27663
4.24029
4.98728
4.19668
3.16141
2.69958
2.50854
2.48216
2.58282
2.74692
2.92727
2.8023
2.45016
2.14888
1.90699
1.81999
1.62869
1.49779
1.46525
1.47821
1.45012
1.41489
1.40448
2.09874
3.72084
2.8979
2.40222
2.33654
2.33106
2.82723
2.92623
2.89133
2.61589
2.22572
2.00755
2.01181
2.04475
2.0981
2.00375
1.85055
1.76279
1.60154
1.48928
1.47308
1.47868
1.44915
1.41145
1.41288
2.2745
4.14791
3.09131
2.12225
1.88193
1.90378
2.18279
2.49568
2.82415
2.76376
2.29834
2.00541
1.9099
1.84696
1.83029
1.99649
1.85557
1.72632
1.65164
2.10416
2.23384
1.47882
1.44889
1.40983
1.4214
2.39836
4.49153
3.40379
2.25511
1.84671
1.85667
2.05836
2.9612
5.43928
4.55643
3.09664
2.28832
2.12504
2.17192
2.30228
2.64097
2.86983
3.01043
3.92687
5.85911
5.85811
1.47942
1.44654
1.41756
1.39248
1.62685
2.72731
3.74882
3.34323
2.59707
2.38914
2.58115
3.93327
5.56407
5.5272
5.22986
5.10317
5.68752
6.49093
7.53825
8.2884
8.60744
8.73625
10.3064
10.2057
10.1189
1.48106
1.44321
1.41484
1.36648
1.34759
1.4384
1.74506
2.27027
2.8586
3.00346
3.15118
3.7538
4.41982
4.65138
5.19118
5.82733
6.38638
7.56483
10.0756
11.1361
11.3069
11.385
11.5486
11.5303
11.5253
1.48179
1.44297
1.40921
1.37838
1.33381
1.32062
1.38021
1.96314
2.45774
2.81415
3.16313
3.535
3.90718
4.16751
4.32606
4.49675
4.77811
5.62157
9.25981
9.68727
10.4344
10.9475
11.1775
11.4081
11.2968
1.48096
1.44447
1.408
1.37522
1.34407
1.30776
1.31328
1.39083
1.54178
1.80281
2.36541
2.9356
3.51281
4.04529
4.37729
4.39523
4.53743
4.87731
6.51041
7.1138
7.47943
7.80726
8.31249
8.66457
8.64869
1.48079
1.4445
1.4091
1.37303
1.34574
1.31277
1.29531
1.28609
1.29865
1.35009
1.45689
1.65278
2.19453
3.00113
3.75269
4.29791
4.70437
5.0603
5.44132
5.57073
5.5852
5.61064
5.62998
5.64554
5.64
1.48062
1.44669
1.42044
1.41686
1.4226
1.44436
1.49444
1.58542
1.76199
2.07289
2.57965
3.47202
4.73608
5.89083
7.04483
8.18048
9.13353
9.82476
10.3188
10.7644
11.1351
11.5727
11.7009
11.67
11.5447
1.48142
1.44674
1.43069
1.4221
1.45184
1.62804
2.03892
2.3721
2.74773
3.57344
4.83007
6.32975
7.77085
9.13297
10.5728
11.9987
13.2485
14.197
14.81
15.2294
15.5673
15.8157
15.6194
14.7684
14.053
1.4809
1.45029
1.43385
1.42004
1.5588
2.38467
2.58832
2.32607
2.3388
2.84943
3.65148
4.5463
5.48671
6.6602
8.12133
9.54598
10.5878
11.1896
11.4902
11.6678
11.751
11.777
10.2199
7.81058
8.0468
1.48137
1.4524
1.4343
1.42769
1.57311
2.2138
2.31371
2.10473
2.05449
2.10069
2.08811
2.01341
2.02552
2.06241
2.11038
2.18271
2.19946
2.16298
2.15107
2.13061
2.14206
2.13903
1.97747
2.06252
2.32492
1.48395
1.44948
1.4372
1.44807
1.67187
2.3326
2.67835
3.24877
5.12393
4.80746
3.55326
2.77102
2.43708
2.18001
1.92446
1.71264
1.54176
1.42972
1.37982
1.36609
1.36825
1.3742
1.36976
1.37495
1.41246
1.4848
1.44629
1.44684
1.49167
1.9268
2.89575
3.80608
16.2057
17.2478
13.1517
6.88841
3.69055
2.74806
2.61137
2.28673
1.91191
1.61559
1.44065
1.37238
1.35463
1.3568
1.36273
1.35638
1.32908
1.32638
1.48362
1.44597
1.44272
1.48901
1.82869
2.60882
5.08214
12.0106
2.28347
2.87551
2.88657
2.63413
2.04568
1.58898
1.40248
1.36145
1.35768
1.35987
1.35274
1.32434
1.31563
1.48115
1.44791
1.43118
1.44099
1.56642
2.29237
8.02134
4.95271
4.34958
4.51518
3.25753
2.59915
2.0139
1.60935
1.41496
1.36869
1.36423
1.36476
1.35659
1.33031
1.32314
1.48021
1.44761
1.42722
1.41334
1.51941
2.43222
10.1458
2.84822
7.77701
4.36169
3.70862
2.77743
1.94476
1.51874
1.3915
1.36727
1.36564
1.36832
1.36004
1.33385
1.32772
1.47941
1.44836
1.42498
1.40528
1.58938
2.60485
4.08037
12.8868
10.8129
8.07404
4.65654
1.77659
1.94358
3.49359
3.4585
2.74308
1.91399
1.50516
1.39015
1.36495
1.36235
1.36773
1.36251
1.33893
1.33239
1.47851
1.44972
1.4221
1.40545
1.75968
2.89631
2.8888
3.42965
4.42397
4.3085
3.27367
2.43842
2.39929
2.52233
2.34789
2.03557
1.76179
1.58833
1.48748
1.42635
1.39845
1.39437
1.3816
1.35407
1.34321
1.4782
1.4503
1.41779
1.40907
2.0246
3.32284
2.81804
2.68395
2.89808
2.73262
2.36908
2.22008
2.18418
2.1203
2.00718
1.89733
1.86483
1.80896
1.7027
1.60318
1.52664
1.48715
1.42438
1.37087
1.35085
1.47884
1.44935
1.41369
1.41541
2.26712
3.73179
2.80318
2.08174
1.92459
1.91857
2.05256
2.18493
2.23982
2.0768
1.85052
1.70558
1.68847
1.6901
1.65668
1.61722
1.5594
1.5181
1.44219
1.43873
1.46257
1.47974
1.44748
1.41082
1.42667
2.49729
4.16964
3.01499
2.02971
1.67485
1.67561
1.8042
1.97983
2.1475
2.10284
1.83644
1.65746
1.59583
1.56624
1.54832
1.57755
1.57251
1.54725
1.61599
2.3761
2.58865
1.47972
1.44754
1.40981
1.43784
2.62696
4.57331
3.33166
2.17706
1.73643
1.70228
1.82279
2.1256
2.83771
2.84249
2.39177
2.15994
2.23307
2.46651
2.75926
3.12629
3.48758
3.75898
5.03846
7.2336
7.15804
1.47915
1.44737
1.41662
1.40192
1.70315
2.96947
3.79331
3.29886
2.53956
2.32984
2.46799
3.04083
4.21493
4.95975
5.32595
5.81667
6.64769
7.66758
8.85818
9.8766
10.4721
10.827
11.8259
11.8214
11.6275
1.48003
1.44494
1.41492
1.36622
1.3647
1.47946
1.79747
2.35368
2.86695
3.01516
3.08382
3.28847
3.69841
4.24453
4.84973
5.58539
6.2635
7.07446
8.67063
9.98025
10.8771
11.5085
11.8363
12.1947
12.2363
1.48174
1.44263
1.41172
1.37957
1.3376
1.33877
1.38852
1.53577
1.88943
2.47863
2.96798
3.36047
3.67911
4.00014
4.29713
4.57714
4.84675
5.25825
6.15074
7.38027
8.47459
9.44838
10.121
10.7891
10.978
1.48103
1.44429
1.40854
1.37922
1.34747
1.31587
1.31739
1.34238
1.42155
1.5881
2.05671
2.73114
3.33758
3.91813
4.35692
4.64952
4.85984
5.06761
5.46685
5.94535
6.33929
6.80612
7.26801
7.86462
8.06197
1.48072
1.44464
1.40923
1.3764
1.35099
1.31923
1.30324
1.30463
1.32281
1.36878
1.50237
1.76592
2.41442
3.20701
3.97731
4.57728
4.98736
5.26565
5.4376
5.48292
5.50622
5.5399
5.58008
5.62816
5.65085
1.48197
1.4437
1.42328
1.40459
1.4027
1.4144
1.46394
1.56761
1.76975
2.11884
2.66379
3.61416
4.98281
6.25482
7.50123
8.72631
9.6978
10.3696
10.8252
11.2371
11.5969
11.9103
12.102
12.0812
11.9906
1.48151
1.44596
1.42952
1.41102
1.42539
1.55148
1.90248
2.25283
2.70841
3.62621
4.97703
6.60387
8.20937
9.73095
11.2111
12.5894
13.7606
14.6214
15.158
15.6153
15.9816
16.192
15.985
15.0374
14.3878
1.48064
1.44938
1.43255
1.41109
1.50444
2.15839
2.32322
2.08621
2.19257
2.79781
3.72819
4.82259
5.93282
7.14054
8.48725
9.72108
10.6458
11.2121
11.5114
11.6838
11.7667
11.7992
10.2375
7.82428
8.14325
1.4807
1.45154
1.43308
1.41928
1.5347
2.03608
2.04868
1.81142
1.75763
1.82467
1.90699
1.86385
1.83812
1.86391
1.94369
2.03207
2.07657
2.09983
2.1036
2.10148
2.10124
2.10502
1.9533
2.05763
2.3367
1.48181
1.4513
1.43323
1.43054
1.56318
2.02368
2.20655
2.55446
3.53691
3.39566
2.79831
2.34116
2.01486
1.83846
1.71032
1.58748
1.47739
1.40296
1.36707
1.35191
1.34503
1.34362
1.33847
1.34986
1.37967
1.48263
1.44931
1.43602
1.44722
1.61455
2.10989
2.98817
14.9225
10.0788
7.03889
4.5445
3.08407
2.48243
2.29036
2.02394
1.74281
1.52855
1.40759
1.35863
1.34107
1.33428
1.33209
1.32674
1.30612
1.2904
1.4818
1.44844
1.43335
1.44414
1.5692
2.05723
5.01096
17.7966
1.98056
2.05422
2.11252
1.98493
1.7306
1.49554
1.37685
1.34285
1.33391
1.3309
1.32546
1.30417
1.28118
1.48069
1.44765
1.42936
1.42495
1.50466
2.14568
8.17512
7.25521
6.92844
3.28196
3.12027
2.3252
1.79107
1.50459
1.38104
1.34372
1.3342
1.33095
1.32552
1.3056
1.28347
1.4799
1.44753
1.42693
1.41016
1.51962
2.42947
9.36464
1.86334
4.41267
3.89664
3.34287
2.40384
1.77501
1.46116
1.36696
1.34169
1.33315
1.33215
1.32698
1.30776
1.28691
1.47898
1.44858
1.42451
1.40498
1.6091
2.62227
3.73826
10.8431
8.65489
5.95228
3.41988
1.71036
2.57503
3.08628
2.78531
2.20734
1.71037
1.44654
1.36455
1.34069
1.33298
1.33321
1.32877
1.31174
1.29198
1.47826
1.44984
1.42122
1.40625
1.78379
2.87848
2.63129
2.65541
3.09217
3.10044
2.59715
2.2359
2.25827
2.29912
2.07238
1.77039
1.54593
1.4359
1.38438
1.35486
1.34087
1.34056
1.33703
1.32097
1.30232
1.4783
1.45009
1.41673
1.41092
2.03701
3.27299
2.66405
2.13759
2.06547
2.05643
1.98892
1.89884
1.88319
1.84328
1.72861
1.59396
1.51418
1.47308
1.43238
1.3947
1.37315
1.36822
1.35521
1.33614
1.32775
1.47947
1.44841
1.41287
1.41922
2.32021
3.72008
2.79624
1.96958
1.69862
1.68976
1.7558
1.79041
1.80597
1.7491
1.63656
1.53437
1.48422
1.4608
1.43254
1.40596
1.39274
1.38883
1.37146
1.43739
1.49078
1.4807
1.44591
1.41088
1.43392
2.59361
4.19805
3.02256
2.03991
1.63086
1.6044
1.67167
1.73235
1.78351
1.74539
1.62454
1.52455
1.4771
1.45731
1.44345
1.44519
1.46131
1.47018
1.6188
2.61329
2.90224
1.48042
1.44631
1.41067
1.4473
2.74413
4.65989
3.35265
2.18544
1.73279
1.67427
1.73845
1.84947
2.04872
2.12928
2.08984
2.15186
2.38952
2.74376
3.15346
3.61209
4.05848
4.42577
5.94943
8.27346
8.27071
1.47905
1.44772
1.41554
1.40737
1.74501
3.11993
3.87382
3.30223
2.54702
2.31596
2.40148
2.77329
3.58196
4.4754
5.29781
6.21673
7.32279
8.51102
9.74558
10.8528
11.6406
12.1914
12.9102
12.8752
12.8
1.47934
1.44615
1.41354
1.36737
1.37295
1.50641
1.8441
2.44759
2.93868
3.05017
3.08906
3.21984
3.45754
4.0694
4.82474
5.66274
6.52115
7.36145
8.52354
9.69661
10.6822
11.4854
12.0022
12.4488
12.6576
1.48158
1.44259
1.41287
1.37847
1.34029
1.3464
1.40059
1.53556
1.8207
2.41641
2.938
3.32742
3.62597
3.97087
4.32662
4.64495
5.02356
5.50113
6.10853
6.95061
7.83457
8.69344
9.41788
10.1223
10.5686
1.48117
1.444
1.40852
1.3808
1.34706
1.31853
1.32224
1.34994
1.41925
1.5965
1.9906
2.69424
3.33634
3.94443
4.42697
4.7752
5.05227
5.26054
5.50399
5.73148
5.96017
6.33468
6.74781
7.16582
7.50432
1.48074
1.44467
1.40869
1.37784
1.35184
1.32024
1.30694
1.31287
1.3325
1.39225
1.52257
1.85429
2.55169
3.38016
4.17447
4.80545
5.24064
5.47265
5.55358
5.55118
5.5358
5.53556
5.54819
5.57024
5.58275
1.48274
1.4421
1.42333
1.40044
1.38778
1.39555
1.44931
1.57223
1.80931
2.19808
2.7628
3.81771
5.24873
6.59751
7.91192
9.17839
10.1625
10.8244
11.2658
11.6628
12.0056
12.2856
12.4669
12.4327
12.3374
1.48142
1.4455
1.42803
1.40549
1.40962
1.52301
1.85205
2.24148
2.77201
3.7648
5.16661
6.86368
8.57562
10.2206
11.7329
13.0835
14.1818
14.9539
15.5342
16.0125
16.3489
16.4943
16.3167
15.3188
14.6634
1.48031
1.44867
1.43115
1.40507
1.48878
2.10018
2.26585
2.05562
2.18738
2.80736
3.77481
4.97778
6.22974
7.52566
8.81857
9.90454
10.7106
11.2194
11.5093
11.6851
11.7641
11.7888
10.2332
7.85329
8.23539
1.48021
1.45047
1.43168
1.41231
1.51426
1.98841
1.9916
1.72529
1.63035
1.67854
1.78599
1.80401
1.79196
1.82402
1.90763
1.99223
2.04855
2.07735
2.09505
2.09687
2.10623
2.10892
1.97043
2.11999
2.4127
1.48069
1.45065
1.43237
1.41892
1.51659
1.91126
1.99776
2.07353
2.389
2.44422
2.28986
2.0626
1.84547
1.71703
1.6318
1.54509
1.46435
1.40962
1.38082
1.36631
1.35767
1.35458
1.35859
1.39836
1.43375
1.48113
1.4494
1.43247
1.42605
1.51567
1.87323
2.44562
6.60967
8.44745
5.68122
3.76649
2.64863
2.19876
2.03879
1.84736
1.64207
1.48838
1.40582
1.37067
1.35542
1.34726
1.34323
1.34541
1.35248
1.33908
1.48094
1.44792
1.43105
1.42454
1.49433
1.87056
3.60162
20.0507
16.6218
10.7949
5.79572
3.03771
2.36711
2.46128
2.21302
1.86569
1.59196
1.43804
1.37691
1.35516
1.34689
1.34263
1.34447
1.35026
1.33051
1.48039
1.44692
1.42867
1.41511
1.48057
2.0416
5.47969
20.492
18.395
10.9451
5.73908
3.01081
2.38469
3.21633
2.85383
2.12653
1.65857
1.44652
1.37754
1.35485
1.3465
1.3425
1.34432
1.35094
1.33141
1.47955
1.44732
1.42645
1.4066
1.51494
2.33836
5.49278
18.505
14.1073
8.47097
4.63219
2.57815
2.61789
3.47153
2.90837
2.14024
1.65158
1.43378
1.37205
1.35327
1.34576
1.34337
1.3457
1.35295
1.33416
1.47864
1.44856
1.42391
1.40374
1.61516
2.57548
3.13066
5.70629
5.9348
4.31458
2.92574
2.33171
2.67184
2.81222
2.39522
1.92125
1.58216
1.42174
1.3705
1.3525
1.34562
1.34466
1.34738
1.35649
1.33898
1.47809
1.44976
1.42051
1.40586
1.77679
2.84308
2.53329
2.29113
2.3333
2.35368
2.1726
2.05844
2.07625
2.07386
1.88732
1.65559
1.48986
1.40917
1.37392
1.3551
1.34686
1.34706
1.35209
1.36309
1.34829
1.47841
1.44986
1.41613
1.41173
2.03126
3.23799
2.62498
1.96149
1.76984
1.75896
1.79312
1.76872
1.76074
1.73013
1.64303
1.53482
1.45598
1.41202
1.38412
1.36357
1.35445
1.35524
1.36064
1.37759
1.37633
1.48002
1.44746
1.41253
1.42182
2.34493
3.73023
2.81645
1.96607
1.62906
1.60473
1.66485
1.68184
1.6735
1.64174
1.57589
1.50193
1.44779
1.41414
1.3893
1.37016
1.36388
1.36545
1.37309
1.49642
1.57404
1.48155
1.44439
1.41127
1.43965
2.648
4.24959
3.06559
2.07546
1.64849
1.59805
1.64531
1.66901
1.66306
1.62962
1.56513
1.50188
1.46209
1.4413
1.43094
1.43251
1.44845
1.46587
1.65291
2.78532
3.24571
1.48117
1.44496
1.41177
1.45665
2.83339
4.73901
3.39856
2.2257
1.76196
1.68264
1.70919
1.75179
1.81341
1.88884
1.99106
2.19495
2.53332
2.96025
3.44302
3.97842
4.49386
4.92898
6.61604
9.1494
9.17934
1.47913
1.44785
1.41423
1.413
1.7615
3.27509
3.98483
3.35792
2.59994
2.34419
2.38615
2.67933
3.32368
4.24004
5.29488
6.49637
7.8178
9.14076
10.4338
11.604
12.5192
13.2006
13.7828
13.8057
13.7051
1.47871
1.44747
1.41161
1.36869
1.38223
1.54332
1.90145
2.59818
3.06391
3.15596
3.17453
3.26535
3.47448
4.09872
4.92188
5.86036
6.84623
7.79693
8.81166
9.84922
10.7875
11.5879
12.1904
12.692
12.9972
1.48142
1.44259
1.4141
1.3764
1.34261
1.35426
1.41683
1.56883
1.88384
2.49517
3.01273
3.39025
3.68676
4.04018
4.41729
4.76204
5.22983
5.7824
6.38112
7.06683
7.79096
8.46938
9.12613
9.67027
10.2365
1.4813
1.44372
1.40888
1.3813
1.34637
1.3208
1.32756
1.3605
1.43834
1.62829
2.03741
2.75726
3.43188
4.05573
4.55297
4.9223
5.21428
5.45313
5.64936
5.82163
5.97926
6.2205
6.53969
6.76288
7.12696
1.48079
1.44463
1.40835
1.37865
1.35209
1.31963
1.30946
1.31778
1.34224
1.41112
1.55127
1.927
2.68281
3.56025
4.38817
5.03095
5.45928
5.64057
5.66265
5.67021
5.5993
5.56639
5.54889
5.53881
5.53007
1.48298
1.44139
1.42314
1.39669
1.37943
1.39284
1.46895
1.6337
1.92414
2.37109
2.98353
4.07447
5.54002
6.93799
8.30974
9.57763
10.5156
11.15
11.6141
12.021
12.3631
12.6361
12.8093
12.7555
12.6377
1.48123
1.4452
1.42724
1.40121
1.40487
1.53552
1.92542
2.40671
3.0501
4.11777
5.56291
7.29793
9.07101
10.7966
12.3352
13.6702
14.6945
15.4661
16.0816
16.6075
16.8878
16.9506
16.8588
15.8454
14.9579
1.47994
1.4483
1.42984
1.40096
1.49218
2.16065
2.38536
2.25382
2.4324
3.06365
4.03372
5.27821
6.60908
7.97976
9.2358
10.2142
10.9114
11.3491
11.6168
11.7868
11.8553
11.8579
10.3084
8.01976
8.41742
1.47983
1.44962
1.43023
1.40695
1.5135
2.04309
2.10005
1.85076
1.74444
1.76937
1.86965
1.91116
1.92191
1.96339
2.04376
2.12069
2.14547
2.15923
2.17434
2.17591
2.18432
2.17774
2.07033
2.29066
2.5874
1.48019
1.44949
1.43119
1.41126
1.50421
1.93703
2.02252
1.94899
2.0062
2.11072
2.14873
2.03395
1.89401
1.79431
1.71406
1.63089
1.55505
1.50327
1.4727
1.45479
1.4428
1.43683
1.4599
1.53731
1.57667
1.4806
1.44816
1.43138
1.4149
1.48929
1.86961
2.18485
3.03782
4.2869
3.76613
3.00412
2.46849
2.1838
2.03072
1.86132
1.68765
1.56074
1.49283
1.46069
1.44329
1.4322
1.42572
1.44733
1.49478
1.46888
1.48055
1.44679
1.43006
1.41423
1.47585
1.87251
2.70782
7.25457
8.98012
6.27036
4.06455
2.76628
2.55401
2.48681
2.18381
1.84236
1.60994
1.50219
1.46119
1.44231
1.43179
1.42574
1.44695
1.49271
1.4588
1.48004
1.44634
1.42788
1.40892
1.47823
2.02625
3.33789
10.5816
10.1077
6.89982
4.3121
2.76474
2.68415
2.94244
2.53369
1.9897
1.6506
1.50622
1.45986
1.44107
1.43149
1.42591
1.44691
1.49314
1.45868
1.47911
1.44728
1.4258
1.40393
1.52316
2.29255
3.31402
8.24096
8.03267
5.60473
3.6469
2.67182
2.79186
3.01772
2.53707
1.98669
1.64671
1.50178
1.45663
1.43909
1.43061
1.42625
1.44839
1.49443
1.46022
1.47827
1.44865
1.42329
1.40259
1.63024
2.56415
2.71997
3.15883
3.55533
3.13305
2.5807
2.40201
2.53312
2.54161
2.20547
1.84189
1.60296
1.49433
1.45463
1.43759
1.43009
1.42746
1.45003
1.49665
1.46317
1.47789
1.44984
1.41985
1.40571
1.79909
2.86447
2.53184
2.1201
2.09088
2.09985
2.07033
2.05509
2.07323
2.02263
1.86665
1.6858
1.55658
1.48798
1.45461
1.43712
1.43008
1.42894
1.45361
1.5007
1.46947
1.47852
1.44969
1.41517
1.41291
2.07743
3.2934
2.70733
2.02161
1.78549
1.77638
1.84312
1.84771
1.83387
1.78911
1.70726
1.61283
1.53714
1.48767
1.45779
1.43953
1.43264
1.43278
1.45879
1.51131
1.49689
1.48045
1.44669
1.41209
1.42445
2.42539
3.83556
2.95034
2.11266
1.74367
1.71316
1.75723
1.77261
1.75543
1.7166