/*--------------------------------*- C++ -*----------------------------------*\
  =========                 |
  \\      /  F ield         | OpenFOAM: The Open Source CFD Toolbox
   \\    /   O peration     | Website:  https://openfoam.org
    \\  /    A nd           | Version:  6
     \\/     M anipulation  |
\*---------------------------------------------------------------------------*/
FoamFile
{
    version     2.0;
    format      ascii;
    class       volScalarField;
    location    "30";
    object      nut;
}
// * * * * * * * * * * * * * * * * * * * * * * * * * * * * * * * * * * * * * //

dimensions      [0 2 -1 0 0 0 0];

internalField   nonuniform List<scalar> 
230684
(
0.940412
0.904172
0.867243
0.84264
0.40311
0.384428
0.374171
0.722042
0.686874
0.723629
0.809727
0.893647
0.962474
1.04897
1.10964
1.15921
1.21528
1.27238
1.32911
1.38007
1.42269
1.46328
1.49367
1.50869
1.51014
0.938334
0.907512
0.432057
0.401973
0.181803
0.16591
0.0818406
0.4367
0.403724
0.414359
0.434549
0.445328
0.459292
0.494046
0.541982
0.593775
0.640231
0.684119
0.710861
0.75977
0.780167
0.789189
0.790043
1.94162
1.79985
0.938375
0.905174
0.434074
0.191749
0.16647
0.152765
0.132734
0.284437
0.257215
0.210331
0.206387
0.210796
0.213833
0.230052
0.246742
0.278045
0.314107
0.336826
0.335208
0.336226
0.338545
0.336406
0.762093
1.5414
1.4423
0.897167
0.459872
0.208547
0.172902
0.152598
0.163947
0.122974
0.242617
0.259586
0.296311
0.25642
0.123635
0.102115
0.0879597
0.0556296
0.207336
0.206296
0.199719
0.205369
0.216936
0.228003
0.233488
0.540882
1.19241
1.10975
0.938147
0.906246
0.42905
0.184705
0.15645
0.164011
0.183892
0.18675
0.219761
0.277482
0.24457
0.104875
0.10921
0.0916451
0.0630685
0.211158
0.222182
0.204463
0.212977
0.228627
0.237958
0.242791
0.575848
1.17967
1.20508
0.939089
0.907059
0.432746
0.180226
0.0619507
0.134477
0.10595
0.114035
0.250856
0.299524
0.284058
0.259913
0.228672
0.195356
0.0675447
0.187796
0.180982
0.208415
0.184231
0.188601
0.207312
0.21924
0.525414
1.16762
1.07513
0.93917
0.906713
0.433257
0.179562
0.117005
0.130024
0.0945766
0.0969406
0.109802
0.101654
0.0967516
0.128292
0.0872378
0.301836
0.212271
0.189525
0.192364
0.200969
0.215254
0.222727
0.227654
0.229248
0.52883
1.08499
1.06429
0.938821
0.905577
0.433808
0.188845
0.159155
0.132885
0.124655
0.205535
0.198109
0.160664
0.130886
0.115783
0.116321
0.354833
0.370387
0.310677
0.264755
0.236146
0.216555
0.209663
0.211189
0.214716
0.501542
1.07347
1.04336
0.938411
0.904641
0.433846
0.19116
0.167881
0.149195
0.128695
0.258644
0.20798
0.164479
0.139373
0.13052
0.416966
0.344542
0.372309
0.321088
0.257829
0.219382
0.201931
0.197551
0.198154
0.20102
0.484239
1.07308
1.04826
0.93811
0.904199
0.433748
0.191564
0.167974
0.152125
0.135245
0.0987498
0.308335
0.213983
0.222518
0.117262
0.364708
0.269224
0.19567
0.245875
0.268419
0.256844
0.242473
0.247168
0.231144
0.226079
0.530724
1.1223
1.09651
0.937972
0.904037
0.433823
0.191103
0.148801
0.0462617
0.0497231
0.167456
0.150794
0.124796
0.110977
0.118287
0.093364
0.187301
0.195585
0.228788
0.266915
0.282159
0.276175
0.259253
0.243092
0.234374
0.522842
1.18531
1.06136
0.937862
0.904105
0.434284
0.192863
0.168587
0.142116
0.0791897
0.174661
0.120492
0.050488
0.0977235
0.0943472
0.108398
0.0944342
0.0977042
0.0916533
0.0925679
0.192189
0.0846234
0.10188
0.2211
0.228664
0.493649
0.991281
0.914686
0.937655
0.904088
0.434606
0.193944
0.174478
0.150525
0.16352
0.225741
0.115907
0.121902
0.105734
0.0578719
0.303946
0.0531285
0.0655571
0.0905183
0.0963332
0.136548
0.129936
0.0980116
0.0820946
0.236225
0.553654
0.482886
0.833581
0.937526
0.903835
0.434744
0.194367
0.17629
0.153648
0.200232
0.239333
0.253137
0.243882
0.214362
0.205757
0.221134
0.202983
0.217461
0.0606088
0.212046
0.229262
0.0969851
0.256871
0.12841
0.111192
0.0842327
0.162782
0.827078
0.937271
0.90395
0.434673
0.194482
0.177305
0.156437
0.234713
0.26252
0.276857
0.274498
0.255417
0.319431
0.123059
0.0902557
0.179419
0.220701
0.219568
0.217646
0.209001
0.233451
0.238056
0.108257
0.102482
0.253729
1.05616
0.934593
0.909349
0.429179
0.398905
0.382447
0.345829
0.355487
0.463497
0.558922
0.551962
0.25182
0.113637
0.118225
0.0807467
0.198457
0.174061
0.161682
0.538571
0.194275
0.133849
0.114143
0.0984298
0.157225
1.07811
1.09251
0.938494
0.901147
0.864402
0.830587
0.810176
0.78129
0.373718
0.342983
0.807385
0.412963
0.220195
0.180758
0.129165
0.0920276
0.0741676
0.135658
0.119027
0.25123
0.12818
0.226833
0.0938939
0.162012
0.477128
1.48522
1.38144
0.940745
0.896399
0.866365
0.828541
0.809857
0.384285
0.176949
0.158705
0.424689
0.985755
0.467951
0.220917
0.212369
0.182294
0.195178
0.129049
0.242658
0.214197
0.285466
0.36837
0.115648
1.82826
1.74473
1.74131
1.58836
0.939171
0.899207
0.862177
0.834594
0.803287
0.785018
0.344264
0.176355
0.393839
0.805395
0.420167
0.262993
0.166397
0.621572
0.586639
0.556233
0.486311
0.239082
0.284886
0.391894
0.767826
1.6688
1.64496
1.63003
1.57707
0.939639
0.898135
0.863807
0.832757
0.806023
0.786073
0.758791
0.749605
0.738209
0.723166
0.723102
0.359608
0.34859
0.75018
0.816925
0.870144
0.453212
0.215186
0.25171
0.529916
1.14418
1.14606
1.15109
1.15806
1.164
5.29902
4.43711
3.76322
3.31545
2.59345
2.19726
2.033
2.25255
2.56943
3.12417
3.9999
5.10539
6.24691
7.21064
8.10378
8.90621
9.63065
10.0701
10.4973
10.6733
10.7275
10.9616
10.7537
10.075
9.89241
5.27112
4.50601
3.0752
2.65303
1.77047
0.432175
0.187513
0.675709
1.13816
1.83508
2.42316
3.22498
4.75205
6.01895
7.30158
8.39647
9.08553
9.42904
9.5434
9.487
9.57202
9.65744
9.51483
10.272
9.4162
5.22609
4.41817
3.11328
2.00391
1.43006
1.7754
1.94827
1.6549
1.32902
1.53999
2.24383
3.31522
5.02618
6.65297
7.4527
7.66293
7.67129
7.66286
7.62784
7.60648
7.36484
6.63833
6.5291
5.207
3.80052
2.914
1.4513
1.0356
0.94681
1.94912
2.51525
2.81795
0.56257
1.54265
2.46021
2.72528
2.88769
2.96638
3.23996
3.45222
3.44782
3.38543
3.35689
3.3735
5.1754
4.30453
2.92617
1.76346
1.28852
0.592864
0.97896
1.84926
3.04374
3.77673
4.07213
0.734019
0.959505
1.56775
1.88404
2.03352
2.32346
2.66321
2.63616
2.91444
2.90251
2.73197
5.16663
4.27501
2.79794
1.78556
0.488494
1.40124
2.05714
2.58481
1.6833
0.873494
0.958265
0.86685
1.21819
1.28173
1.53262
2.27958
2.72681
2.83005
2.91089
2.90577
2.84251
5.19011
4.31554
2.85503
1.83003
0.574475
0.120082
0.354605
1.01327
1.42568
1.89384
2.37098
2.4878
2.64782
2.77382
2.92618
2.91072
3.12204
2.94127
2.93304
5.22202
4.36097
3.24845
1.95055
1.14256
0.679283
0.810085
0.183721
2.07739
3.59572
3.40733
2.80511
2.42705
2.60661
2.82642
2.81416
2.92482
2.91801
3.09882
2.96104
2.70342
5.25093
4.47448
3.33196
2.06169
1.663
1.81541
2.8714
3.35234
3.7554
3.98895
3.27566
2.63811
2.49215
2.64781
2.78101
2.77594
2.95536
3.13677
3.01169
2.79773
5.26765
4.52755
3.27618
2.10409
1.71571
2.23135
2.93969
3.49938
1.16359
1.55359
1.58929
0.226111
0.645349
1.02511
2.74021
3.49703
3.25553
2.89864
2.83761
2.87332
2.93184
2.9591
3.08384
3.09335
2.89633
5.28036
4.55504
3.29498
2.13042
1.56254
0.335275
1.00345
0.191728
0.404095
1.11404
1.54669
2.47336
2.79219
2.77854
2.76577
2.61338
2.59504
2.68846
3.01241
2.9614
2.92656
5.29752
4.58177
3.35972
2.1759
1.87527
2.0295
0.533325
0.51066
0.101115
0.326585
0.898581
0.872353
0.628251
0.907598
1.51676
2.0179
2.12549
2.29604
5.31718
4.58182
3.48398
2.23034
2.05187
4.41858
2.9215
1.41749
0.310165
1.03073
1.61484
0.27493
0.246464
0.420409
0.905298
0.0413433
0.26123
0.800442
1.30552
1.63085
2.06926
5.32227
4.65616
3.42291
2.27744
2.22381
4.93052
5.09378
3.84696
2.43615
1.37511
1.1733
1.32969
0.317193
0.597591
0.567553
0.19747
1.14562
1.47078
0.911437
0.807221
0.505379
0.966583
1.787
5.3467
4.61571
3.53181
2.30786
2.49411
5.34923
5.37339
4.33606
3.87337
3.59577
3.10855
2.83889
0.628992
0.750721
1.27036
1.51478
1.77478
1.9174
1.1501
0.902876
0.361563
0.820385
1.02892
3.6889
5.34347
4.55279
3.46407
2.83723
2.63297
3.45958
5.63389
5.41485
4.7052
3.88268
3.3984
0.402163
0.731568
1.28677
1.37897
1.49318
0.634165
4.80621
5.54215
5.3366
4.53341
4.02886
3.68806
3.40902
3.2578
3.02211
4.09066
4.89974
4.24643
4.04546
1.81104
0.252877
0.110965
2.28831
0.826203
1.61538
1.88827
2.92096
4.69422
6.69644
6.95781
5.33676
4.52853
4.01948
3.68868
3.44289
2.7361
2.15319
0.664114
0.912638
1.55752
1.54058
2.18427
1.39372
0.239351
0.410692
0.419718
2.15374
1.54719
1.90425
5.26851
5.65312
6.04378
6.49405
5.34123
4.53069
4.04659
3.66163
3.42118
3.20998
2.76993
0.303655
0.630087
0.926927
1.18194
1.21525
0.951731
1.63331
1.45862
1.76975
1.86623
1.63252
3.05384
3.74271
4.3522
4.75465
5.14058
5.34456
4.52994
4.05681
3.67068
3.46005
3.19266
3.01705
2.82038
2.46952
2.18809
1.68491
1.54709
2.1517
3.27498
3.48033
3.63061
3.17414
2.47892
0.601496
1.45235
3.04079
3.38708
3.81757
4.07155
4.32807
6.66573
6.40371
5.97737
5.76436
5.18064
4.7147
4.52943
4.47268
4.5606
4.90352
5.7795
7.91946
9.84963
11.2782
12.6241
13.8365
14.8702
15.4904
16.0012
16.2528
16.2492
16.538
15.9916
15.8749
14.9529
6.6764
6.38345
5.88392
5.61413
3.86457
2.51719
2.41733
2.88711
3.70907
4.93003
6.09491
7.42006
8.78665
10.1585
11.562
12.8213
13.689
14.1271
14.2553
14.049
14.3038
14.5127
14.2644
13.9595
13.4275
6.667
6.37092
5.87301
5.21172
4.03335
1.3239
1.52032
1.9138
2.30732
3.18268
4.16804
4.94479
5.96957
7.28585
9.15675
10.6676
11.2422
11.351
11.259
11.079
10.9177
10.8343
10.0701
8.7772
9.21905
6.66562
6.38843
5.95359
5.0956
3.7405
1.30296
1.66104
2.71018
3.63143
4.66988
5.21125
1.90911
1.74643
1.96693
2.88454
4.63032
5.10614
4.9615
4.95834
4.89777
4.82823
4.69795
4.55298
4.49616
4.68359
6.67751
6.28348
5.73916
4.99826
2.89672
0.891319
1.01615
2.51309
4.18338
4.32515
4.47073
2.74278
1.53367
1.70686
1.91101
2.86341
3.90683
3.78607
3.71992
3.55461
3.36551
3.34645
3.37131
3.45616
3.47992
6.66748
6.2649
5.7081
4.84681
2.28104
1.75797
2.94877
2.8271
3.22839
2.49907
2.21785
2.29359
3.07008
3.43753
3.33541
3.64226
4.08378
3.83627
3.5207
3.50123
3.63149
3.58337
6.68343
6.26593
5.78063
5.15025
1.65457
0.335903
1.17872
1.60078
2.72649
3.45046
3.26611
3.46262
4.07943
4.16958
4.0098
3.82615
3.74317
3.79609
3.69861
6.67766
6.3268
5.89297
5.12437
2.63665
1.55192
1.38155
0.201912
2.728
2.95164
3.19747
2.91411
2.58211
3.13054
4.01149
3.93404
3.76829
3.64898
3.64291
3.7358
3.60016
6.67661
6.37963
5.92694
5.15004
4.73177
5.26054
6.20633
0.295491
2.97309
3.41469
3.75631
3.04437
2.52777
3.28498
3.91562
3.81104
3.67473
3.59861
3.64949
3.76213
3.66937
6.6796
6.39447
5.93551
5.18702
4.88846
5.9502
6.1513
5.20251
2.82108
2.47213
1.27905
0.625975
1.08992
2.21504
3.90052
4.04598
3.52704
3.71539
3.99027
3.91545
3.79189
3.72225
3.76945
3.88292
3.79258
6.67816
6.41115
5.95768
5.21054
5.11682
4.2757
3.8774
0.163031
0.141435
0.141698
0.147652
0.290264
0.685098
1.05892
1.71696
2.05301
2.38542
2.58653
2.77211
3.02049
3.30173
3.57173
3.83914
3.96208
3.91438
6.67673
6.43965
5.98375
5.26744
5.68469
6.84242
2.73162
1.03036
0.588833
0.158222
0.106678
0.101835
0.101498
0.100713
0.101687
0.102625
0.221317
1.47519
1.75225
1.5882
1.49542
2.17905
3.23862
3.67842
3.75346
6.67641
6.46013
6.00518
5.32952
6.14822
7.73232
6.18418
3.85249
1.97716
1.52244
0.163169
0.293964
1.29872
1.87267
1.60034
0.6281
0.360685
0.969863
1.42174
0.977422
1.16242
1.66932
2.93323
3.64568
3.78756
6.67679
6.48062
6.00496
5.39767
6.37096
8.03958
7.43801
5.86075
5.01611
3.74936
2.19172
1.85945
1.96594
2.34898
2.57606
2.26826
2.16505
2.24779
1.87102
1.04707
1.12197
1.27664
1.95183
3.42118
4.01325
6.68158
6.47964
6.00907
5.45463
6.72276
8.23214
7.59819
6.48917
5.70609
5.10644
4.59855
4.31672
1.7185
2.22354
2.28044
2.56592
3.2946
3.79468
3.69648
2.73238
2.08023
1.98032
3.79955
7.5369
7.60183
6.69214
6.432
6.00715
5.55919
5.54849
6.41256
7.76784
7.61546
6.83225
5.93935
4.44824
2.57943
1.45301
1.80998
2.23581
2.80481
3.32705
5.12383
5.78864
5.2088
5.26008
6.48233
8.41255
10.5484
10.5882
6.70887
6.4136
6.18801
5.86916
5.57513
5.57632
5.48816
6.62404
6.8925
6.7381
6.15202
3.90317
1.45173
2.07944
2.36063
2.88831
4.11813
5.30688
5.8399
6.19727
7.05652
8.65111
9.72848
10.208
10.8315
6.70741
6.42442
6.14554
5.90956
5.65629
5.08131
4.75737
2.26043
2.40242
3.09766
3.15617
4.14821
4.07509
3.60252
3.66637
3.99578
4.86104
5.76804
4.48894
5.26935
6.30242
7.75898
8.1021
8.62972
9.32833
6.70324
6.43176
6.15415
5.86108
5.65715
5.37551
4.80026
0.42489
1.5781
1.86105
2.85741
2.91052
3.32091
3.57586
4.42554
3.74197
3.72231
3.29994
3.34827
4.29628
5.58087
5.88581
6.64804
6.98034
7.9478
6.70393
6.43026
6.16432
5.85861
5.64999
5.40017
5.2314
4.89508
4.51711
3.46383
2.93565
2.65955
3.25321
5.20096
6.05404
7.03462
6.4775
5.94128
6.497
6.07513
7.38544
7.32458
7.56956
7.48666
7.60263
6.73294
6.7321
6.63263
6.61014
6.67502
6.53577
6.52563
6.35125
6.42972
6.68812
7.17843
9.22781
11.7901
13.4621
14.9766
16.3883
17.5192
18.1437
18.507
18.8053
18.3933
18.7452
18.2136
18.1769
17.6169
6.74084
6.72056
6.63015
6.58657
6.57633
6.01785
5.99779
6.0946
6.52462
7.95554
9.11152
10.157
11.3324
12.4804
13.8539
15.0988
15.9585
16.4144
16.5252
16.6043
16.6492
16.7702
16.4864
15.4518
15.7588
6.73808
6.73188
6.62818
6.49662
6.70926
5.5889
4.8212
4.49795
5.12901
6.97553
7.70392
8.07485
8.76413
9.77544
11.1854
12.3226
12.7504
12.844
12.7238
12.5024
12.3426
12.2486
11.2498
9.72792
10.4477
6.74309
6.7331
6.62678
6.48822
6.76928
6.13646
5.46656
5.34634
5.84293
6.54155
6.81012
6.31396
4.66529
4.3969
5.15296
6.35023
6.34916
5.90142
5.8334
5.68725
5.51792
5.48886
5.50574
5.30265
5.48519
6.76652
6.68649
6.62145
6.50144
6.6038
3.96956
3.24357
3.69747
5.27506
4.4754
4.44528
5.19766
4.56002
3.83085
3.95674
5.11514
5.82623
5.70707
5.75778
5.80455
5.54943
5.18134
4.99738
4.76602
4.65887
6.76646
6.68469
6.64122
6.64276
3.60288
1.77257
2.38214
6.20913
1.54383
2.51189
3.01659
2.54752
3.83712
4.51922
4.6905
4.98925
5.0695
5.29566
5.72761
5.95961
5.76364
5.28297
5.15465
5.16793
4.78618
6.76693
6.67431
6.63897
6.67714
3.80447
1.71012
2.41141
2.36468
1.16522
2.62768
3.81518
3.82359
3.25046
3.8322
5.6179
5.97234
5.7971
5.51343
5.37283
5.3226
4.96714
6.74648
6.71223
6.62328
6.52144
6.31173
4.50588
5.76924
0.26013
2.43316
2.05326
2.20041
2.22203
2.11059
3.04932
5.36034
5.71822
5.50915
5.29644
5.22911
5.22542
4.84562
6.73803
6.72227
6.6208
6.44346
6.61472
7.87336
10.3459
0.289476
2.14532
2.25049
2.74557
2.3195
2.07006
3.37043
5.49447
5.64421
5.41243
5.23125
5.2371
5.27518
4.90223
6.73496
6.72773
6.6251
6.43367
6.88084
8.24716
7.79044
5.24918
3.07014
2.7359
1.79615
0.610104
1.14903
3.51183
4.06012
3.70023
3.25463
4.41465
5.61647
5.6672
5.51035
5.38051
5.40246
5.42716
5.04342
6.73245
6.73561
6.61706
6.45973
7.31016
8.51656
5.89904
2.16315
2.58144
2.82469
2.76709
3.10187
4.11598
4.60316
4.40342
4.0317
3.70847
3.6523
3.76646
4.03043
4.57395
5.09397
5.44249
5.53241
5.17823
6.73449
6.73607
6.60361
6.49531
7.92903
9.07142
7.22624
2.82077
2.05937
1.98145
2.23438
2.81126
3.20517
3.13559
3.16149
3.03791
3.04019
3.03686
2.89336
2.70232
2.77455
3.56447
4.82313
5.35848
5.23107
6.74084
6.72736
6.58921
6.51045
8.17141
9.50842
8.08823
6.24509
4.45721
3.29103
2.67964
2.63169
2.72225
2.90836
3.09266
3.14635
3.02418
2.79284
2.44117
2.64233
2.77101
3.41768
4.76678
5.37195
5.37608
6.7457
6.71712
6.5851
6.55239
8.14988
9.59832
8.23666
7.01711
6.5995
6.17514
5.4604
4.24416
3.9334
4.18454
4.24002
4.07936
3.9967
4.08044
3.88918
3.62449
3.26347
3.65922
4.57348
5.76427
6.02034
6.74705
6.71538
6.5824
6.59826
8.17798
9.6433
8.38295
7.23135
7.06561
6.9709
6.57688
5.77987
4.09845
3.80515
3.61457
4.45136
5.59479
6.20736
6.45834
6.33157
5.87518
6.06441
7.70502
9.95722
10.4405
6.73949
6.72576
6.60958
6.55033
6.72819
7.81732
8.63259
8.29603
8.04771
7.92861
7.23223
4.56031
3.8448
3.90614
4.38766
5.39475
7.18616
8.63029
10.0063
10.7799
11.3355
11.6069
13.8731
14.0985
14.3455
6.74372
6.71457
6.65559
6.54177
6.49
6.56163
6.47662
7.05846
7.90084
8.36918
8.14401
7.15617
6.48033
6.1402
5.16048
5.42091
7.37026
7.74876
9.51423
10.8654
11.4692
11.6471
12.7108
13.085
14.1445
6.75132
6.7018
6.65525
6.55895
6.4647
6.34478
6.31318
6.38102
5.84423
5.59236
6.28134
6.7314
7.06087
7.31897
7.17382
7.07221
7.41647
6.78401
8.35981
9.34398
10.1636
11.019
11.2384
12.1461
12.3194
6.75051
6.70495
6.64791
6.55903
6.47414
6.33311
6.29003
5.30542
4.4231
4.19381
4.93988
5.27302
5.96475
6.82812
7.72956
7.49567
7.65544
6.78102
7.60328
9.06571
8.93364
9.27725
10.4835
11.1358
11.0513
6.74888
6.70836
6.64455
6.55861
6.4727
6.36986
6.28365
6.15642
5.91029
5.62382
5.20469
4.91081
6.01944
7.31647
8.56096
9.11073
9.78323
9.91035
10.4257
10.4322
10.0714
10.184
10.2236
10.2444
10.3091
6.73594
6.74727
6.72794
6.7972
6.85361
6.95888
7.0799
7.18637
7.40229
7.6446
8.10816
9.87632
12.9475
14.8206
16.4098
17.9577
18.936
19.1977
19.0793
19.095
19.1063
19.5625
19.1094
19.2199
18.9584
6.73962
6.74205
6.75649
6.77784
6.95044
7.25451
7.99143
7.89438
8.45415
9.53125
10.4998
11.5766
12.673
13.7324
15.0028
16.1872
17.007
17.4305
17.5423
17.507
17.6078
17.9081
17.5829
16.3957
16.9153
6.73445
6.76084
6.74989
6.75948
7.39755
8.67462
8.02955
7.23019
7.75161
8.62674
8.86931
9.17449
9.69828
10.5606
11.7235
12.686
13.104
13.2552
13.1822
12.9993
12.8952
12.8409
11.762
10.1057
11.05
6.73909
6.76235
6.74151
6.77359
7.40617
8.6544
8.04902
7.25526
7.27619
7.43196
7.43121
7.48592
7.29294
6.81959
6.82523
7.02289
6.66444
6.22486
6.0331
5.76834
5.72847
5.69066
5.49751
5.61119
5.81871
6.75665
6.73463
6.75553
6.81617
7.57372
8.10224
6.67154
6.40477
5.60638
4.58003
4.59695
5.46712
6.48245
6.36992
6.40245
6.76582
6.8295
6.70914
6.70933
6.74853
6.73642
6.64884
6.58168
6.24487
5.9852
6.75937
6.72577
6.77911
6.92413
7.61411
5.84159
5.40986
8.47775
2.75237
2.87873
2.30395
2.58081
4.00268
5.82663
5.97564
5.6593
5.6673
6.20024
6.63107
6.76867
6.7737
6.66957
6.60055
6.45966
6.20802
6.75654
6.72371
6.77285
6.9228
7.23644
5.33926
6.37651
3.39794
0.924421
2.42564
2.8543
3.00152
2.82998
3.83969
6.18165
6.76421
6.77942
6.71208
6.6524
6.51474
6.28748
6.74011
6.74633
6.74915
6.80024
7.28282
8.07393
10.9371
0.305744
1.70281
1.31485
1.5622
1.70708
1.82195
2.96642
5.92208
6.71352
6.72035
6.6634
6.61754
6.47862
6.24262
6.73175
6.75472
6.73891
6.74062
7.29733
9.24358
12.3692
0.27719
2.06045
1.49883
2.08678
2.07743
2.04167
3.48907
6.21316
6.71633
6.70299
6.65086
6.62557
6.50637
6.27319
6.7286
6.76145
6.72377
6.73656
7.56896
9.16705
7.82044
5.27068
3.11241
2.6352
1.61945
0.573429
1.12426
3.60696
3.60385
3.12849
3.01704
4.73507
6.45145
6.67192
6.68578
6.67926
6.67116
6.58633
6.35352
6.7306
6.76178
6.69935
6.73999
8.07775
9.41841
8.88082
6.28863
4.9016
4.31345
4.07614
4.61981
5.71363
6.2456
5.73754
5.18933
5.10722
5.39118
5.54221
5.70742
6.06895
6.46715
6.6504
6.58701
6.40593
6.74126
6.74585
6.68017
6.75205
8.63357
9.84822
8.48484
6.66136
4.1892
3.76373
4.59117
5.76234
5.7944
5.53349
5.50364
5.16502
4.88406
4.64319
4.54302
4.50992
4.78755
5.57113
6.35058
6.5395
6.39478
6.75564
6.71922
6.67806
6.75968
8.7335
10.1297
8.42022
7.15711
6.50539
5.67874
5.78637
5.70433
5.23017
5.03062
5.27827
5.41284
5.31779
5.03413
4.87621
4.79257
4.8965
5.53391
6.30677
6.45555
6.38844
6.76202
6.70253
6.68906
6.78074
8.61174
10.1826
8.44438
7.12536
7.08418
7.2471
7.20663
6.74998
6.09639
6.05642
6.05049
6.05076
6.03244
6.04964
6.01841
5.96752
5.73535
5.99078
6.41743
6.85937
7.0088
6.76108
6.70391
6.69133
6.84307
8.58431
10.2017
8.5986
7.30082
7.30809
7.54941
7.68988
7.92215
7.10857
5.97041
5.89239
6.75456
7.2902
7.53656
7.77806
8.1068
8.33359
8.42522
9.54212
11.693
12.1698
6.74077
6.74172
6.68799
6.7689
7.09108
8.47785
8.97064
8.46941
8.33227
8.76857
9.12491
9.01286
7.86895
7.5153
7.8878
8.98142
10.2765
11.5369
12.8473
13.9018
14.5739
15.0289
16.3422
16.9161
16.7941
6.73269
6.75367
6.69457
6.6866
6.73236
6.85171
6.6377
7.18473
8.32
8.83551
9.16944
9.15221
9.27202
9.81608
9.72082
10.1207
10.4333
11.0271
12.6599
13.5944
14.5764
15.4003
16.167
16.8615
17.2354
6.74538
6.72431
6.73319
6.66772
6.65994
6.67954
6.7136
6.66356
7.17079
7.85706
8.39674
8.85507
9.22603
9.78453
10.0078
10.1625
10.3857
10.4402
11.1169
12.0331
12.662
13.5557
14.167
15.0865
15.5247
6.74884
6.72239
6.71411
6.70142
6.64424
6.6375
6.66002
6.68675
6.54554
6.52669
7.30007
7.95947
8.68548
9.51244
10.1548
10.4365
10.7416
10.6792
11.2165
11.5703
11.7838
12.1318
12.645
13.1915
13.4912
6.74664
6.72838
6.70416
6.69687
6.67483
6.60903
6.63915
6.6493
6.66432
6.68636
6.92058
7.37741
8.8992
10.0764
11.062
11.6493
12.1334
12.2504
12.5318
12.4864
12.4212
12.3418
12.4726
12.3773
12.4803
6.74336
6.72815
6.7696
6.74715
6.86873
6.98855
7.18258
7.41079
7.73224
8.03589
8.50951
10.3352
13.6402
15.681
17.2986
18.9814
19.9046
20.0341
19.7526
19.6501
19.6454
19.739
19.7499
19.6562
19.5838
6.74043
6.73769
6.77174
6.76142
6.94588
7.28231
8.17872
8.41725
9.17247
10.1373
11.1218
12.2821
13.4615
14.5446
15.714
16.7912
17.5362
17.8822
17.8801
18.0358
18.297
18.5041
18.2853
16.9043
17.4078
6.7317
6.76184
6.75686
6.77816
7.34784
8.65231
8.54035
8.10438
8.54347
8.93876
9.15739
9.59536
10.1846
10.98
11.9771
12.7573
13.1327
13.3025
13.2778
13.1465
13.1005
13.0814
11.9879
10.2662
11.3511
6.73316
6.76716
6.74916
6.79978
7.42844
8.60074
8.19851
7.51471
7.48779
7.70781
7.71061
7.56185
7.44932
7.28586
7.15168
6.97965
6.65644
6.31521
6.07506
5.87867
5.77766
5.76559
5.82141
5.71136
5.99081
6.74244
6.75672
6.74544
6.82196
7.46086
8.66871
8.39654
7.95968
5.65843
4.61984
4.93978
5.84927
6.83203
7.32871
7.3283
7.20447
7.05975
6.95713
6.92216
6.92202
6.93219
6.95044
6.93382
6.78087
6.60469
6.74868
6.74208
6.77126
6.86488
7.53212
8.51138
8.37812
9.05309
1.79645
1.94644
2.15321
2.62414
4.05261
5.63107
5.9331
5.80913
6.00012
6.54054
6.84771
6.91359
6.9417
6.96545
6.96091
6.9835
6.87297
6.74382
6.74529
6.76286
6.85474
7.3947
8.35938
9.74016
4.29983
0.566859
1.05839
1.80665
2.39619
2.89321
4.45909
6.47708
6.89649
6.94167
6.965
6.96221
6.97581
6.9023
6.73464
6.75164
6.75336
6.80525
7.27383
9.04338
12.6403
0.339941
1.54515
2.10486
3.22361
2.74265
2.57012
3.89216
6.32219
6.8896
6.94252
6.9607
6.95854
6.97552
6.89565
6.72778
6.75935
6.74815
6.77799
7.41109
9.54962
11.5787
0.230733
0.994615
3.04643
3.62866
3.0204
2.91235
4.47822
6.52039
6.9041
6.94351
6.96443
6.96283
6.98415
6.91041
6.72526
6.767
6.72472
6.77432
7.7822
9.4627
8.54918
5.28391
3.16646
2.46483
1.47549
0.612714
2.07847
3.44916
3.58679
3.30184
3.6374
5.46084
6.72334
6.89883
6.93965
6.9631
6.97188
7.00297
6.94231
6.73038
6.76356
6.69592
6.7826
8.35072
9.62705
8.76059
7.88732
5.96842
4.92975
4.8156
5.66815
6.35989
6.7163
6.14703
5.77848
6.03434
6.49579
6.63461
6.669
6.77211
6.91803
6.97325
7.01409
6.97053
6.74564
6.7405
6.67659
6.78574
8.8415
9.98146
8.46235
7.4955
7.03547
6.37438
6.79949
7.23634
7.30392
7.21008
7.02844
6.75946
6.53204
6.39578
6.30639
6.26885
6.42096
6.72604
6.92171
7.00267
6.98807
6.76287
6.70868
6.68297
6.78921
8.95077
10.3006
8.45765
7.17126
7.098
7.1495
7.25793
7.30479
7.065
6.91959
6.88433
6.83201
6.70971
6.59651
6.50285
6.41852
6.49566
6.74106
6.94587
6.90493
6.82371
6.76869
6.69111
6.70253
6.84736
8.8001
10.3827
8.53926
7.11155
7.06294
7.35941
7.50901
7.54155
7.3591
7.2313
7.10094
7.02255
6.98802
6.96528
6.91309
6.8892
6.90639
6.9455
6.95853
7.21063
7.45868
6.76502
6.69629
6.70899
6.89168
8.74388
10.4176
8.70463
7.33153
7.3018
7.54947
7.73765
7.99617
8.2835
7.86681
7.74452
7.8205
7.84757
7.9911
8.27979
8.6994
9.0681
9.18239
10.4444
12.7078
13.5027
6.74192
6.74176
6.68654
6.81244
7.20313
8.85832
9.16958
8.50362
8.40941
8.92464
9.35317
10.0529
10.4678
10.4232
10.833
11.6193
12.542
13.5533
14.617
15.6069
16.3295
16.8529
18.1791
18.1333
18.6715
6.72941
6.76016
6.6876
6.71029
6.79681
6.94321
6.73268
7.38881
8.73302
9.05215
9.44676
9.89173
10.4133
11.5266
12.0252
12.6363
13.3114
13.9174
15.0274
16.1058
16.9841
17.9016
18.4441
19.002
19.4064
6.74103
6.73005
6.74104
6.67406
6.70883
6.76195
6.79575
6.75188
7.32393
8.30986
9.22737
9.7848
10.4062
11.2072
11.781
12.2581
12.7784
13.2144
13.7743
14.8722
15.3786
16.0696
16.6272
17.3889
17.8584
6.74847
6.72198
6.71885
6.72928
6.65918
6.7094
6.7696
6.83488
6.92576
7.29044
8.32472
9.36674
10.3449
11.2772
12.0068
12.5132
12.9701
13.1242
13.4941
13.7642
13.8285
14.1919
14.6661
14.9834
15.3479
6.7467
6.72819
6.7055
6.72314
6.70755
6.64964
6.74211
6.80072
6.85736
7.10829
7.41029
8.92112
10.7314
11.8984
12.786
13.5688
14.027
14.1924
14.468
14.1736
14.105
14.1554
14.1689
14.1634
14.1445
6.74882
6.71526
6.78588
6.72463
6.82916
6.97641
7.18357
7.47092
7.84603
8.17334
8.54277
10.7152
14.0592
16.2455
17.978
19.6714
20.5426
20.5691
20.198
20.0299
19.9861
19.9997
20.0226
19.9423
19.8721
6.74051
6.73582
6.76768
6.73051
6.91746
7.22685
8.12094
8.55467
9.50874
10.5518
11.5583
12.7592
13.9911
15.1333
16.2335
17.2122
17.8398
18.0642
18.2295
18.4495
18.7766
18.7169
18.6104
17.4317
17.4294
6.72977
6.76128
6.75505
6.75671
7.31912
8.55535
8.50072
8.19671
8.70299
9.08272
9.33172
9.85079
10.5275
11.3505
12.2503
12.8449
13.1447
13.2938
13.2919
13.2139
13.1983
13.1927
12.1038
10.3799
11.504
6.72924
6.7672
6.75159
6.78706
7.38784
8.52182
8.10817
7.35281
7.38045
7.63752
7.79253
7.61559
7.38683
7.2178
7.0707
6.9104
6.70764
6.44372
6.15865
5.94154
5.89551
5.86749
5.93441
5.94631
6.20964
6.73314
6.76414
6.75018
6.79996
7.35661
8.47087
8.27038
8.0968
6.79684
5.89681
6.12712
6.69676
7.1831
7.44348
7.42243
7.27251
7.12737
7.04028
7.00378
6.99282
6.9954
7.01793
7.03905
6.96632
6.86255
6.73743
6.75502
6.75286
6.81324
7.29627
8.39627
9.19948
7.63446
3.35183
2.98045
3.13167
3.76461
5.23339
6.32475
6.46216
6.3961
6.54768
6.82756
6.95799
6.98405
7.00076
7.02928
7.0489
7.14114
7.13245
6.73644
6.75027
6.75693
6.80812
7.21839
8.44125
9.88958
6.94359
2.79482
2.92637
2.46767
2.08396
3.39019
4.70677
4.62615
4.3156
4.57192
5.83855
6.79883
6.97233
7.00079
7.02753
7.04739
7.15398
7.13903
6.73169
6.75148
6.75808
6.78626
7.2127
8.83401
11.2658
5.17032
3.0406
3.08963
2.45688
1.98414
3.27433
5.75334
5.49102
4.60009
4.40449
5.57054
6.73666
6.96906
7.00297
7.02589
7.04718
7.15723
7.14009
6.72528
6.76126
6.74834
6.76882
7.4039
9.28295
8.76357
3.81502
3.11267
2.80294
2.19754
1.84029
3.78763
6.10968
5.61319
4.73173
4.66874
5.88126
6.80731
6.97641
7.00859
7.03396
7.05049
7.16079
7.14862
6.7239
6.7684
6.72109
6.77364
7.87201
9.44395
9.37277
5.23988
3.49263
2.92707
2.71785
3.57909
5.04439
5.78328
5.27929
4.8445
5.23276
6.36761
6.90179
6.9834
7.01598
7.03836
7.05477
7.16695
7.16632
6.73116
6.76232
6.69118
6.78328
8.35919
9.63039
8.60516
7.8053
6.74508
5.79416
5.84248
6.72648
7.04187
7.21367
6.77016
6.49605
6.65828
6.89152
6.95849
6.9614
6.98864
7.03573
7.06496
7.1817
7.19359
6.74881
6.73579
6.67404
6.78827
8.87733
9.9916
8.40249
7.26322
7.35506
7.38063
7.52688
7.59022
7.62131
7.592
7.40738
7.18314
7.04705
6.98806
6.9451
6.91475
6.95052
7.02325
7.075
7.19608
7.23523
6.7671
6.70094
6.68796
6.79367
9.04022
10.3842
8.5354
7.07103
7.09081
7.3407
7.53562
7.54039
7.5266
7.46041
7.33099
7.19441
7.10149
7.04378
6.99548
6.95943
6.99295
7.04162
7.10942
7.06893
7.0235
6.7716
6.68442
6.70935
6.873
8.89669
10.4942
8.62919
7.17308
7.06557
7.36563
7.52372
7.57045
7.55123
7.47873
7.35596
7.25276
7.1923
7.15467
7.12267
7.11589
7.13816
7.11538
6.94716
7.11455
7.99993
6.76747
6.6892
6.72406
6.92748
8.84481
10.5518
8.78834
7.40049
7.36476
7.59254
7.69356
7.8291
8.04477
8.18879
8.20744
8.15036
8.13867
8.28864
8.60469
9.05151
9.44446
9.60505
11.0561
13.6717
14.4047
6.74511
6.73676
6.68529
6.83626
7.09866
9.11052
9.39274
8.70111
8.58442
9.02938
9.41976
10.1486
10.9719
11.5767
12.2399
13.0611
13.9793
14.8946
15.8217
16.7093
17.422
17.9492
19.1074
19.6277
19.649
6.7288
6.76364
6.67653
6.71772
6.82882
6.98386
6.73352
7.64371
8.99154
9.39214
9.62108
10.0737
10.6846
12.1834
13.1318
14.1509
15.0896
15.9195
16.7932
17.8036
18.6393
19.5263
20.0091
20.5375
20.822
6.73834
6.73358
6.74328
6.6648
6.72398
6.78715
6.81054
6.76802
7.38145
8.41273
9.39052
10.0716
10.8201
11.7933
12.6308
13.4053
14.2482
14.8825
15.8126
16.6116
17.2002
17.8257
18.3141
18.8395
19.4061
6.74862
6.7207
6.72264
6.73018
6.65829
6.73054
6.80199
6.87267
6.97317
7.40344
8.45219
9.70441
10.9543
12.0736
12.9702
13.7259
14.2663
14.7387
15.3036
15.6041
15.638
15.8682
16.0787
16.2238
16.6015
6.74712
6.72761
6.70345
6.73128
6.70977
6.64894
6.7728
6.83808
6.91944
7.23096
7.68363
9.46881
11.3678
12.693
13.7293
14.6232
15.2599
15.7647
15.5606
15.4806
15.1535
15.2406
15.2585
15.3042
15.2425
6.74859
6.71428
6.78625
6.71093
6.81594
6.95412
7.20016
7.49289
7.84441
8.24093
8.71212
10.8641
14.1741
16.4878
18.4184
20.0349
20.6457
20.5155
20.2023
20.0671
20.0346
20.0486
20.0815
20
19.9473
6.73922
6.73664
6.76558
6.71664
6.90975
7.23646
8.254
8.84176
9.86686
10.93
11.9642
13.1564
14.3761
15.5414
16.5787
17.4606
17.9252
18.2024
18.4836
18.785
19.0207
18.8056
18.8012
17.5492
17.4913
6.72788
6.76211
6.74999
6.74681
7.35283
8.69456
8.74191
8.59332
9.11373
9.514
9.76669
10.2541
10.9055
11.7417
12.5546
13.0058
13.2165
13.3106
13.3235
13.2856
13.2782
13.2658
12.1822
10.5196
11.6911
6.72699
6.76626
6.74982
6.77415
7.42036
8.70624
8.3511
7.57415
7.49291
7.64042
7.87638
7.75319
7.55823
7.35164
7.21842
7.12052
6.71021
6.54758
6.41453
6.11125
6.08074
6.05587
6.18433
6.25064
6.53275
6.72918
6.76325
6.75521
6.78053
7.34455
8.55537
8.29905
7.96254
7.90617
7.73656
7.6287
7.62312
7.5996
7.5643
7.49186
7.37014
7.2458
7.17026
7.13741
7.12383
7.11772
7.12459
7.17139
7.06325
7.06546
6.73278
6.75463
6.7603
6.78605
7.24659
8.39846
8.74924
8.87841
5.96647
5.16623
5.43466
6.25557
7.11265
7.41561
7.3067
7.12753
7.07098
7.09721
7.11614
7.11943
7.1212
7.12824
7.16726
7.22743
7.24239
6.73305
6.74927
6.76236
6.78145
7.18463
8.43522
9.75866
8.84353
5.68836
4.64903
4.27603
4.74639
6.76064
7.23839
6.86383
6.42386
6.44458
6.84975
7.07751
7.1177
7.12305
7.12862
7.16572
7.22712
7.24062
6.72906
6.75245
6.7581
6.76678
7.22455
8.78309
10.403
9.70164
5.92027
4.87444
4.25312
4.48214
6.53316
7.81308
7.24321
6.46238
6.32297
6.76065
7.05812
7.11503
7.12511
7.12941
7.16566
7.22819
7.24041
6.72302
6.76406
6.74327
6.76355
7.47291
9.19198
9.59381
6.93302
5.06317
4.32454
3.95203
4.97981
6.9016
7.96211
7.27412
6.51566
6.42401
6.83052
7.07012
7.11626
7.12647
7.13251
7.16838
7.23116
7.24545
6.7234
6.76903
6.71515
6.77245
7.94805
9.49551
9.38309
7.94734
5.73201
4.8813
5.09577
6.46494
7.28173
7.58265
7.04886
6.61248
6.67627
6.9695
7.09732
7.12029
7.1315
7.13782
7.17159
7.23732
7.2575
6.73288
6.75965