/*--------------------------------*- C++ -*----------------------------------*\
  =========                 |
  \\      /  F ield         | OpenFOAM: The Open Source CFD Toolbox
   \\    /   O peration     | Website:  https://openfoam.org
    \\  /    A nd           | Version:  6
     \\/     M anipulation  |
\*---------------------------------------------------------------------------*/
FoamFile
{
    version     2.0;
    format      ascii;
    class       volScalarField;
    location    "30";
    object      p;
}
// * * * * * * * * * * * * * * * * * * * * * * * * * * * * * * * * * * * * * //

dimensions      [0 2 -2 0 0 0 0];

internalField   nonuniform List<scalar> 
230684
(
11.6467
11.0515
9.75827
7.14595
0.0569883
-12.064
-18.2558
-15.0067
-14.644
-17.7654
-22.91
-28.696
-32.5256
-32.6519
-29.9782
-26.87
-24.1808
-21.9897
-20.175
-18.4478
-16.3874
-13.6081
-9.94288
-6.36955
-2.38945
13.1875
13.0324
12.2861
12.6164
3.91928
-15.2985
-30.77
-10.9665
-11.9357
-15.6029
-20.8235
-27.9647
-33.5155
-34.0556
-30.2712
-26.7079
-24.131
-22.3083
-20.6972
-19.0119
-16.8972
-14.0404
-9.58568
-4.67653
-1.7734
15.558
15.799
16.3193
21.3567
38.435
-40.7281
-31.8595
-19.9266
-11.4939
-13.4445
-18.2425
-32.152
-39.8616
-39.2395
-31.8139
-27.167
-25.2502
-24.4707
-22.0858
-18.9211
-15.8797
-12.4482
-6.93463
-2.90878
-1.02982
18.239
18.0217
20.0863
13.1019
30.2388
-48.7851
-34.8871
-19.7518
-17.3917
-11.5102
2.50555
-74.4174
-63.1959
-42.6814
-34.107
-25.1928
-25.1711
-25.1699
-22.6077
-17.5299
-13.7691
-10.1381
-5.32375
-2.21816
-0.880905
21.1316
21.9177
24.126
25.8898
14.7635
-31.4783
-28.9966
-32.2747
-31.8469
-21.4775
4.39321
-118.841
-64.6963
-41.6342
-32.4705
-23.9447
-24.8256
-24.7829
-21.6096
-17.0885
-13.012
-8.91964
-4.19895
-2.00697
-0.934165
23.5139
24.8651
29.02
39.169
46.453
-16.916
-9.66444
-50.4919
-49.0288
-41.2079
-28.8108
-53.5382
-54.611
-36.0531
-40.9527
-25.5346
-24.7132
-24.6058
-20.9567
-15.214
-12.1336
-8.03413
-3.22459
-1.68825
-0.722297
24.2668
25.3889
30.3713
44.2068
55.2842
11.5653
19.6576
14.0962
-50.4414
-39.0993
-40.8994
-41.0255
-37.7708
-39.7263
-29.7406
-26.3378
-24.1359
-23.1496
-18.7349
-15.5211
-11.962
-7.50994
-3.24584
-1.45627
-0.662093
23.663
24.1781
27.2289
33.3016
32.4536
35.2778
48.8026
-1.63262
-57.4924
-38.1639
-69.9839
-3.6741
-30.915
-30.7714
-26.5511
-23.6543
-22.4483
-21.3013
-18.5958
-15.6802
-12.062
-7.63794
-2.96559
-1.55688
-0.749047
22.666
22.901
24.8048
27.9378
30.0877
35.2423
45.745
-117.306
-61.6782
-37.9799
-56.2728
-8.90578
-53.2749
-36.6098
-25.2315
-19.1443
-20.7258
-20.6553
-17.8997
-15.2716
-11.7973
-7.5795
-3.00267
-1.6135
-0.739561
21.6109
21.7458
23.1737
25.7405
28.0411
29.8044
28.7194
-25.6512
-73.2457
-57.9987
-47.9879
-42.0525
-50.1003
-34.8143
-28.3533
-23.7331
-22.822
-20.8477
-17.983
-15.2596
-11.4278
-7.56011
-3.54864
-1.84574
-0.857145
20.5439
20.5951
21.8321
25.1941
37.1079
23.6347
43.3937
-38.7946
-47.4289
-48.3573
-36.5698
-48.1538
-46.3145
-35.6657
-29.9382
-29.0862
-26.0064
-20.4659
-17.4083
-16.3553
-12.1451
-6.97508
-3.6682
-1.59988
-0.743016
19.5204
19.4015
20.0579
21.6582
23.2232
29.7315
3.71718
17.647
-35.9358
-14.1596
-42.0519
-47.4221
-41.0354
-25.7936
-31.6904
-36.8548
-26.6358
-14.6661
-12.4022
-19.338
-14.5794
-7.84369
-1.82732
-1.07277
-0.412598
18.7613
18.5213
18.6099
18.5677
17.1124
12.7335
7.00903
19.2679
-16.18
-7.83842
-25.3712
-51.232
-37.7624
-14.7853
-29.328
-7.97568
-35.8821
-12.1883
-17.0196
-26.4177
-17.074
-8.65161
-2.82215
-0.612097
0.085921
18.3388
18.0629
17.8926
17.2127
15.1452
11.074
7.16832
3.11884
-3.75957
-5.37695
-5.90457
-18.441
-42.825
-32.8719
-33.5763
-45.7063
-19.6442
-8.41213
1.76824
-26.9039
-25.4977
-16.1492
-2.85964
-0.863398
-0.255985
18.131
17.8622
17.6922
17.0465
15.8101
13.5577
10.6371
8.35351
5.07156
6.43276
23.3798
49.9759
-66.0482
-36.4463
-31.3343
-23.2557
-20.9592
-14.5409
-14.5621
-24.5814
-21.4019
-15.2479
-3.74105
-1.35135
0.229313
18.0046
17.7363
17.535
17.0498
17.0933
17.7281
17.2038
14.094
11.8755
14.5017
30.7427
54.5417
-57.5096
-35.3891
-15.5436
-31.7835
-20.3132
-8.89394
-10.5454
-32.3806
-21.8558
-17.362
-7.98204
-0.771474
-0.473244
17.9086
17.6771
17.5416
17.5929
17.8659
18.1209
17.2433
11.7067
9.88866
12.1674
16.5222
41.0515
-57.0005
-30.826
-28.5792
-27.8627
-14.7262
-6.78469
-28.6302
-29.5418
-20.0349
-8.92201
-4.4922
-0.562771
0.282275
17.8066
17.6097
17.5518
17.6995
18.2224
19.343
20.7135
6.07716
8.98227
5.33112
3.74463
-6.10453
-32.4573
-29.1502
-13.2297
-25.0073
-34.261
24.2749
-79.2498
-44.0199
-19.1673
-2.67574
-2.0995
-0.997303
0.573767
17.6902
17.4947
17.3768
17.3351
17.395
17.6505
20.0543
-4.19887
10.4206
7.14498
8.73013
19.7663
-42.3207
-0.0718147
-13.3654
-11.6387
4.26444
33.9749
-87.6252
-40.7195
-8.53639
-4.39926
-2.11412
-0.601768
1.14708
17.6026
17.3903
17.1955
16.9503
16.5189
15.7048
14.3555
9.34491
6.0977
2.75803
-1.89181
-7.79451
-16.4102
-12.2113
-13.9562
-15.6641
-12.9709
-14.1736
-42.0268
-24.2945
-7.87852
-4.25609
-2.56319
-1.02497
0.587071
11.3758
10.8322
9.37241
6.26095
-0.12112
-11.13
-16.925
-14.0514
-14.5249
-18.1434
-23.5777
-29.4155
-33.2068
-33.3718
-30.7438
-27.6502
-24.8841
-22.5882
-20.6861
-18.8481
-16.6661
-13.7962
-10.0048
-6.16162
-2.34453
12.8046
12.6508
11.8175
11.4684
4.00008
-13.2283
-50.8459
-12.0048
-12.437
-16.6979
-22.1172
-29.1424
-33.9098
-34.1149
-30.6689
-27.3242
-24.6618
-22.6191
-20.8926
-19.1203
-16.9763
-14.157
-9.72754
-4.41125
-1.55499
15.0397
15.248
15.5665
19.5063
45.3241
-20.2085
-12.2827
-14.9663
-19.471
-32.7938
-39.1811
-39.4632
-31.8335
-27.6267
-26.0955
-24.892
-22.3885
-19.319
-16.0445
-12.5248
-6.78627
-2.47745
-0.675499
17.6233
17.3938
19.655
16.4003
31.2527
-19.8009
-18.9754
-16.1197
-1.80166
-56.6231
-32.3096
-27.0214
-26.5707
-25.7786
-22.3938
-17.9897
-14.0124
-10.296
-5.2308
-1.91853
-0.643516
20.3766
21.1675
22.8286
23.8028
12.5143
-33.3123
-28.2829
-27.1753
-31.8023
-27.3809
-8.56126
-38.1377
-26.2766
-25.9311
-25.1144
-21.7265
-17.376
-13.1359
-9.10928
-4.21781
-1.6494
-0.566643
22.6615
24.0559
27.6632
36.8396
53.5222
-69.4965
-52.2225
-34.5977
-50.8249
-49.8003
-36.6158
-26.568
-25.5643
-24.573
-20.5426
-16.1876
-12.3761
-8.09592
-3.37396
-1.44916
-0.518797
23.503
24.7321
29.13
41.825
69.6444
-4.99947
-40.2515
-37.7024
-28.7492
-25.9342
-24.8206
-22.9266
-19.4822
-16.0941
-12.0388
-7.65534
-3.24537
-1.28561
-0.517025
23.0958
23.7708
26.6302
32.1059
30.8098
34.7361
50.1565
62.4909
-45.9509
-40.4211
-30.8794
-25.5405
-23.5583
-21.7883
-19.1571
-15.9555
-12.0527
-7.59572
-3.11902
-1.31669
-0.551514
22.2317
22.6212
24.4969
27.3838
29.3992
34.3712
47.8767
-60.6906
-43.5827
-27.1078
-22.0727
-22.2388
-21.0256
-18.4408
-15.5143
-11.7632
-7.5416
-3.18875
-1.40845
-0.580469
21.2457
21.5041
22.9146
25.2344
27.0895
28.3042
26.9304
-48.6677
-75.4008
-53.1852
-47.9213
-48.9758
-60.1474
-33.1607
-26.8304
-24.6385
-23.8371
-21.3033
-18.4518
-15.4494
-11.6155
-7.7811
-3.59273
-1.54713
-0.653172
20.2296
20.3743
21.5309
24.2818
32.939
23.0674
49.9116
-49.1127
-47.3382
-37.7052
-31.2469
-29.6638
-27.7268
-20.6146
-18.2073
-16.0991
-11.933
-7.09164
-3.81242
-1.49942
-0.617987
19.2757
19.232
19.8403
21.1191
21.62
21.0093
9.04651
9.34551
-40.6017
-41.0296
-15.6997
-13.1588
-17.5703
-14.7817
-7.37008
-3.32769
-1.10725
-0.349058
18.5744
18.4078
18.484
18.3327
16.6475
11.0988
6.36657
23.8198
-53.2613
-35.0523
-14.0243
-30.2099
-14.589
-31.1486
-14.4997
-26.5083
-16.3554
-9.03877
-3.3346
-1.53998
-0.0468218
18.1844
17.9997
17.8338
17.1515
15.0795
10.5395
7.39411
1.8945
-3.00357
-4.88845
-10.5577
-22.4247
-45.8089
-30.3624
-30.4659
-46.8404
-21.5853
-10.8138
18.3487
-27.7852
-4.4805
-1.59036
0.153553
18.0019
17.8341
17.6704
17.078
15.9189
12.7307
10.8218
7.66047
4.3473
4.92381
17.3154
68.0395
-42.0552
-33.0405
-24.3571
-21.9225
-15.4863
-14.1417
-24.3195
-20.9314
-11.8679
-3.26115
-2.13789
0.20317
17.8817
17.7143
17.4806
17.0105
17.2894
18.5351
17.2929
13.3746
10.7154
12.2468
25.6842
77.7754
-35.488
-16.8505
-10.5176
-6.63587
-10.2021
-0.721975
-0.247915
17.7845
17.6489
17.5382
17.6208
17.9538
18.1093
17.3826
11.5174
9.20532
10.1005
12.7223
41.9483
-30.7921
-31.665
-4.46718
-36.2457
-32.3115
-19.45
-9.13704
-4.85388
-1.3307
-0.119672
17.6882
17.5755
17.5278
17.6323
18.0294
18.9936
20.6997
5.56826
11.2612
5.03428
2.0898
-6.02923
-31.0493
-40.2212
-11.618
-39.7253
46.9292
-48.2848
-19.467
-3.27547
-2.62307
-1.5932
0.0328437
17.5799
17.4632
17.3601
17.2895
17.2575
17.2968
19.8187
-17.6325
14.4979
5.93664
6.31773
27.0554
-3.63125
-14.3938
-13.3046
-0.304191
60.8887
-45.1885
-8.66348
-3.87128
-2.41186
-1.30521
0.234189
17.4997
17.3675
17.1931
16.9395
16.4934
15.6189
14.1278
9.32865
6.25187
2.76154
-2.24621
-7.4345
-15.0262
-12.8302
-14.5629
-17.1964
-15.5841
-13.7194
-34.695
-24.3576
-8.70125
-4.51839
-2.78257
-1.25428
0.240705
10.971
10.3964
8.6515
5.05218
-0.688642
-9.67637
-14.3089
-13.5747
-14.7374
-18.6852
-24.1524
-29.7375
-33.3797
-33.6755
-31.3304
-28.2949
-25.3609
-22.9049
-20.9393
-19.0369
-16.7695
-13.8414
-9.99252
-6.00912
-2.31434
12.2597
11.9821
10.8494
8.73855
-0.801295
-12.5091
-20.1231
-14.4572
-13.4874
-17.4224
-22.7793
-29.3052
-33.641
-33.899
-31.1073
-28.035
-25.3201
-23.1655
-21.3757
-19.4844
-17.2012
-14.2817
-9.77318
-4.54187
-1.51289
14.3284
14.3199
14.0273
14.5101
7.36202
-30.1809
-21.0898
-18.5919
-15.2471
-17.0421
-21.9763
-31.7784
-37.1159
-37.1432
-32.0373
-28.7814
-27.0275
-25.2241
-22.6545
-19.4787
-15.9859
-12.3114
-6.81926
-2.60158
-0.650047
16.7881
17.0377
17.0689
15.8198
11.362
-38.1245
-25.6536
-20.9403
-21.2776
-21.0249
-18.5018
-50.1032
-44.3938
-43.7716
-33.3208
-28.8105
-27.5472
-25.6353
-22.2095
-18.0206
-13.9171
-10.0566
-5.25439
-1.9197
-0.604224
19.3714
19.9006
20.6728
20.1636
8.14027
-23.7382
-20.8019
-25.5185
-37.0053
-35.4016
-24.147
-49.8008
-49.616
-41.2338
-35.4132
-28.5239
-27.0777
-25.1802
-21.5871
-17.3013
-13.0978
-9.0416
-4.30444
-1.56298
-0.516553
21.5682
22.635
25.1618
30.3449
33.4004
-91.8382
-68.9315
-42.4094
-45.8867
-47.9121
-38.6036
-34.494
-28.2836
-26.5771
-24.4095
-20.7888
-16.4057
-12.2711
-8.09892
-3.58272
-1.40635
-0.508066
22.5203
23.5342
26.841
34.4897
36.3728
2.07838
-52.9564
-39.6953
-28.9048
-26.5775
-25.2262
-23.0324
-19.8465
-15.9133
-11.867
-7.55986
-3.37212
-1.30673
-0.508892
22.342
22.9729
25.3658
29.1289
27.3377
31.9064
48.7391
62.6759
-61.8578
-43.8897
-26.0884
-23.601
-23.16
-21.6573
-19.2524
-15.7433
-11.7716
-7.44549
-3.30335
-1.27686
-0.519253
21.6512
22.0501
23.729
25.96
27.4132
32.5835
47.0043
-63.0837
-67.6832
-38.3964
-23.7
-22.3885
-22.5373
-21.1641
-18.6976
-15.4854
-11.6428
-7.49026
-3.39619
-1.36598
-0.556543
20.7684
21.027
22.2733
23.9277
24.6818
25.4353
18.5384
-59.1498
-63.0187
-48.0335
-46.2298
-54.8342
-61.434
-35.632
-26.4786
-25.6802
-24.1743
-21.4755
-18.6473
-15.404
-11.6174
-7.70796
-3.67283
-1.50902
-0.627268
19.8347
19.9641
20.888
22.3868
22.786
20.8035
25.2651
-45.6871
-34.7044
-39.4909
-40.1599
-49.7543
-45.2856
-36.438
-30.8384
-28.8835
-26.8079
-21.3224
-18.763
-15.9758
-11.774
-7.52018
-4.02272
-1.57772
-0.644669
18.9774
18.9368
19.3786
19.8885
18.3218
13.7123
4.68064
-10.6008
-29.6956
-33.5274
-38.9204
-44.3785
-32.8631
-29.6434
-28.9414
-29.2063
-42.0967
-19.1755
-19.0945
-18.4721
-13.2564
-7.26664
-4.20957
-1.45358
-0.560804
18.3645
18.232
18.2215
17.7609
15.1641
10.0885
4.45681
-4.13986
-11.3915
4.42775
-39.0304
-49.8747
-29.5171
-23.2039
-26.7458
-25.9913
-24.2744
-13.824
-26.0422
-23.3628
-14.6708
-8.44968
-4.38937
-1.7499
-0.445822
18.0439
17.9194
17.7327
16.9103
14.2695
10.4376
6.8578
1.5534
-2.70599
-6.28838
-13.6376
-25.6404
-36.0168
-29.3441
-28.665
-28.1805
-22.7068
-16.2765
-17.3182
-22.4312
-15.5603
-10.8275
-4.71708
-1.73517
-0.31132
17.9179
17.817
17.6676
17.0171
15.3064
12.8779
11.399
7.72079
4.04378
2.5801
4.72568
-13.2827
-57.4349
-35.0823
-27.3294
-24.9024
-22.5788
-18.0598
-17.9387
-20.9075
-17.2499
-11.9684
-5.87749
-2.0005
-0.399292
17.8182
17.717
17.4765
16.923
17.7458
19.8569
18.0574
13.4663
10.0865
8.96736
10.1653
-15.2973
-56.7267
-29.43
-20.6712
-25.0896
-23.0976
-16.1604
-20.4468
-23.1106
-17.1226
-12.1699
-6.84496
-2.12335
-0.644983
17.7232
17.6457
17.5498
17.6567
18.0684
18.1229
17.4513
12.1351
8.9493
6.06055
6.11683
-6.39474
-56.276
-29.1163
-20.4456
-26.3282
-21.5772
-12.8683
-31.8226
-25.7654
-16.2618
-8.28483
-5.2081
-2.28392
-0.584521
17.6254
17.561
17.5041
17.5316
17.6995
18.2408
18.4577
6.9414
10.1089
4.23412
-0.415167
-9.20064
-25.1562
-20.8825
-20.1522
-21.8554
-15.5345
-2.34743
-52.0491
-30.7865
-14.0335
-5.6505
-3.93933
-2.28832
-0.53581
17.5175
17.448
17.3351
17.2034
17.0036
16.5253
16.9097
-7.35111
11.3236
4.60324
2.12641
-6.9967
-20.3026
-13.8141
-15.8657
-16.7652
-10.992
-12.999
-59.1417
-29.3071
-10.1878
-5.61191
-3.84064
-2.16221
-0.376538
17.4403
17.3573
17.1785
16.891
16.3756
15.3605
13.5805
9.39303
6.23483
2.63229
-2.31926
-8.1784
-13.6922
-14.3015
-15.8803
-18.6311
-18.3972
-22.4318
-34.4286
-22.5021
-8.90054
-5.2611
-3.51147
-1.7723
-0.0914677
10.478
9.84233
7.88604
4.08536
-2.4089
-9.21391
-12.3982
-12.7982
-14.6763
-18.9966
-24.5107
-29.9406
-33.4955
-33.9876
-31.9905
-28.9629
-25.8736
-23.2924
-21.2144
-19.1933
-16.8245
-13.8163
-9.92785
-5.89127
-2.26606
11.6242
11.1866
9.76415
6.60163
-1.09041
-10.3214
-13.8306
-13.3731
-14.0593
-17.9905
-23.3151
-29.3034
-33.2735
-33.7962
-31.6833
-28.8173
-26.0042
-23.7052
-21.7832
-19.7268
-17.3007
-14.2589
-9.69526
-4.57908
-1.42651
13.5096
13.2526
12.316
10.281
1.03481
-16.3298
-16.988
-16.8986
-16.852
-19.4077
-24.1866
-31.1074
-35.2677
-35.3358
-32.3364
-29.6537
-27.5903
-25.4294
-22.7559
-19.5314
-15.9432
-12.0807
-6.77158
-2.68383
-0.616529
15.8007
15.7097
15.0527
12.5623
3.43197
-16.9132
-18.5045
-19.9148
-22.9522
-24.8306
-26.4358
-37.4512
-40.306
-38.5919
-33.3976
-29.8983
-27.93
-25.4343
-22.0253
-17.9382
-13.8221
-9.83303
-5.20128
-1.91381
-0.55334
18.2177
18.3959
18.3341
16.3144
5.14867
-13.7438
-15.5373
-23.7472
-38.9945
-39.4889
-32.7269
-40.0487
-43.121
-38.8947
-34.1574
-29.6587
-27.5349
-25.0458
-21.3802
-17.0788
-12.9062
-8.78317
-4.27744
-1.56889
-0.517745
20.3098
20.8956
22.1222
22.9046
11.4856
-11.7466
-0.781312
-33.4303
-78.6194
-64.9162
-42.5828
-43.2015
-44.6701
-38.0518
-32.9492
-29.2215
-27.0577
-24.3381
-20.5384
-16.2245
-12.0305
-7.87789
-3.6333
-1.40344
-0.513197
21.3706
22.0054
23.9509
26.3236
15.3783
11.9548
29.9518
39.7144
-55.3974
-38.3048
-29.1729
-27.5132
-25.804
-23.0629
-19.556
-15.6079
-11.5739
-7.34783
-3.4077
-1.32185
-0.50849
21.4302
21.8798
23.5631
25.4867
23.679
29.7213
48.5855
67.239
-69.8688
-35.5645
-22.3536
-23.7013
-23.4456
-21.4609
-18.8678
-15.3716
-11.4165
-7.27352
-3.36233
-1.29504
-0.517115
20.936
21.2309
22.5295
23.9675
24.6433
30.0226
43.2936
-70.0243
-66.2854
-30.9423
-22.4162
-23.4878
-23.1347
-21.1633
-18.5413
-15.2587
-11.4165
-7.39742
-3.44736
-1.37217
-0.554033
20.1863
20.3478
21.2849
22.172
21.7237
21.3516
10.0181
-54.5637
-57.0923
-48.1248
-44.557
-57.4815
-57.0097
-35.3963
-27.6191
-26.6211
-24.5875
-21.6254
-18.6834
-15.2584
-11.4371
-7.58527
-3.68651
-1.50717
-0.613383
19.3659
19.3977
19.9834
20.3897
18.6588
15.6747
3.00099
-31.5487
-34.52
-36.3682
-39.1926
-42.7411
-40.65
-34.5372
-30.3928
-28.5007
-26.047
-22.014
-19.1444
-15.8845
-11.7298
-7.79382
-4.06652
-1.63128
-0.656612
18.629
18.5298
18.7081
18.4224
15.572
10.826
0.323156
-13.402
-20.6597
-23.4821
-32.7631
-39.1428
-34.1666
-30.9378
-29.5082
-28.7505
-27.2225
-21.4929
-19.7321
-17.5414
-12.5963
-7.97454
-4.47911
-1.67068
-0.633126
18.1306
17.9836
17.8147
16.9531
13.6526
9.14044
2.94904
-4.94747
-10.8668
-13.7808
-29.041
-35.3113
-30.7019
-27.7554
-27.8817
-27.0239
-24.2739
-19.3583
-20.2602
-19.492
-13.7065
-8.70606
-4.85447
-1.90874
-0.606198
17.905
17.7933
17.5367
16.5142
13.4875
10.1757
6.46509
1.40398
-3.20225
-8.00798
-15.2357
-24.4905
-31.0736
-29.072
-28.0187
-26.5582
-23.4851
-19.6657
-19.3667
-19.2993
-14.5461
-10.0104
-5.36893
-1.99818
-0.520367
17.847
17.7771
17.6232
16.887
14.8276
13.3866
11.8941
7.8433
3.68379
0.383207
-3.12917
-16.5946
-35.4331
-30.5908
-26.9508
-25.2205
-23.2605
-20.159
-19.4417
-19.3819
-15.7816
-11.2352
-6.13128
-2.54039
-0.636391
17.7796
17.7119
17.4692
16.9304
18.2656
20.8529
18.4295
13.6161
9.57859
6.21019
1.73443
-14.4961
-32.4892
-26.3856
-23.6241
-24.4533
-22.7797
-19.7215
-20.9384
-20.7826
-16.4264
-12.0462
-6.1866
-2.85018
-0.88992
17.686
17.6413
17.57
17.7252
18.2306
18.3267
16.3182
11.489
8.62658
4.71192
-1.54616
-13.2921
-27.0764
-24.5348
-22.3445
-23.6163
-20.9449
-16.5317
-24.7138
-20.3732
-13.8993
-9.0957
-5.86287
-2.83358
-0.94218
17.5819
17.5408
17.4779
17.4406
17.4078
16.9966
15.9814
8.74847
7.19946
3.48971
-2.24815
-11.0991
-20.007
-19.8373
-19.7347
-20.2918
-18.5687
-15.5617
-31.4725
-20.6405
-11.7563
-6.78482
-4.42763
-2.43103
-0.776478
17.4709
17.4232
17.2997
17.109
16.7508
15.844
13.6124
8.36147
7.55341
3.70121
-1.44802
-8.9137
-15.9281
-16.4516
-17.3521
-18.7349
-18.7089
-19.3822
-34.1179
-20.323
-11.3377
-6.49109
-4.21257
-2.2049
-0.448263
17.3931
17.3353
17.1511
16.8292
16.241
15.1027
13.1529
9.60991
6.23041
2.41501
-2.42188
-8.11983
-13.4969
-15.4725
-17.1777
-19.3977
-20.5006
-23.0149
-25.8922
-19.0512
-10.0319
-6.02999
-3.92067
-1.99214
-0.0908072
9.96778
9.29491
7.24709
3.56603
-1.89154
-7.32778
-10.4334
-11.9752
-14.677
-19.2696
-24.7575
-30.0709
-33.595
-34.3137
-32.5721
-29.5446
-26.3097
-23.5841
-21.3532
-19.2145
-16.7648
-13.7029
-9.81312
-5.77679
-2.22358
10.981
10.4332
8.83313
5.34415
-0.848532
-7.35979
-10.5805
-12.1011
-14.149
-18.2818
-23.6244
-29.2779
-33.0655
-33.8839
-32.254
-29.4968
-26.5653
-24.091
-22.001
-19.8195
-17.2793
-14.1517
-9.56781
-4.54705
-1.37801
12.6877
12.2577
10.8987
7.825
0.209645
-9.79654
-13.1224
-15.1355
-17.3625
-20.7856
-25.3813
-30.635
-33.9699
-34.3609
-32.508
-30.1517
-27.9181
-25.5019
-22.774
-19.5764
-15.9144
-11.9166
-6.64135
-2.68241
-0.611224
14.7992
14.4911
13.3337
10.0738
1.76898
-9.47532
-14.0435
-18.6256
-23.6584
-26.8142
-29.3682
-34.6455
-37.2416
-36.2732
-33.3014
-30.4311
-28.0704
-25.2596
-21.8854
-17.8889
-13.773
-9.63732
-5.06802
-1.8788
-0.546702
17.0499
16.9525
16.2762
13.3775
4.40485
-6.74231
-11.2692
-22.2234
-37.7951
-39.4594
-35.6222
-37.8168
-39.3081
-37.011
-33.5625
-30.2067
-27.6823
-24.7973
-21.1491
-16.9373
-12.7177
-8.50962
-4.16187
-1.56784
-0.538019
19.0294
19.2342
19.4612
17.9998
9.13972
0.236034
3.6179
-26.6037
-76.4149
-62.209
-43.4701
-42.2782
-42.1114
-36.895
-32.7597
-29.8367
-27.3415
-24.148
-20.2466
-16.0282
-11.8123
-7.56524
-3.5813
-1.39706
-0.53355
20.1773
20.4888
21.3742
21.2951
15.0514
15.2431
30.4254
49.2614
-52.8833
-36.2496
-29.6531
-28.3861
-26.4256
-23.0135
-19.2509
-15.366
-11.2916
-7.12708
-3.35896
-1.3173
-0.525991
20.4518
20.7093
21.7222
22.3567
20.9912
26.6127
44.0128
67.7711
-64.5284
-32.3141
-24.208
-25.6845
-24.45
-21.5159
-18.5161
-15.0282
-11.0915
-7.0794
-3.31618
-1.30103
-0.534602
20.1533
20.3149
21.1876
21.8255
21.6693
25.9953
37.1759
-70.8381
-61.9284
-31.3251
-24.6962
-25.6186
-24.0924
-21.3344
-18.3566
-15.0042
-11.1505
-7.22342
-3.39365
-1.37175
-0.571554
19.5516
19.5933
20.1814
20.3339
18.8036
17.0759
5.3262
-48.9911
-51.6024
-43.644
-43.1647
-60.0038
-49.7236
-34.4093
-28.7009
-27.6029
-24.9893
-21.7274
-18.5765
-15.0356
-11.2459
-7.43691
-3.6312
-1.49717
-0.625305
18.8625
18.7847
19.0364
18.6244
15.7431
11.3359
-1.5284
-23.875
-31.9507
-34.1141
-37.1272
-40.2227
-37.986
-33.4522
-30.3933
-28.4009
-25.6648
-22.2459
-19.0412
-15.5433
-11.6345
-7.78877
-3.98711
-1.63428
-0.673844
18.2588
18.0925
18.0003
17.0735
13.437
8.43922
-0.95407
-12.6439
-19.7498
-24.3896
-30.0163
-34.2301
-33.2651
-31.1779
-29.5038
-28.0569
-25.736
-22.1227
-19.5661
-16.6121
-12.3839
-8.25887
-4.40649
-1.75157
-0.681661
17.8895
17.7155
17.3796
16.1386
12.4152
8.03748
2.02624
-5.14512
-11.0294
-16.3559
-24.4354
-29.492
-29.948
-28.8793
-28.1108
-26.8604
-24.5209
-21.2936
-19.7403
-17.5905
-13.2425
-8.88822
-4.90428
-1.96283
-0.695389
17.771
17.6571
17.3209
16.1069
12.8808
9.76837
6.10363
1.13898
-3.76934
-9.01314
-15.5284
-22.8052
-27.8934
-28.2198
-27.4187
-26.1664
-24.0475
-21.2522
-19.7644
-17.9937
-14.0502
-9.79021
-5.49033
-2.13463
-0.628231
17.7883
17.7398
17.587
16.7809
14.6197
13.7308
12.0841
7.77185
3.26375
-1.20678
-6.6558
-16.8038
-27.0007
-27.6381
-26.4347
-25.45
-23.8313
-21.4571
-20.1549
-18.6784
-15.1501
-10.981
-6.31912
-2.89227
-0.800813
17.7607
17.7183
17.4907
17.0196
18.6942
21.4583
18.6099
13.6896
9.15256
4.51653
-1.74031
-13.152
-24.4921
-24.6575
-24.3406
-24.7201
-23.6509
-21.6207
-21.0885
-19.6892
-16.2195
-12.276
-6.61726
-3.30288
-1.11007
17.6711
17.6481
17.6136
17.8283
18.412
18.5404
16.5989
12.2792
8.36755
3.70776
-2.85705
-12.3199
-22.4697
-23.5171
-22.8016
-23.266
-22.6397
-20.6791
-22.1699
-19.2072
-13.8867
-9.55464
-6.31061
-3.19913
-1.16686
17.5578
17.5276
17.4666
17.3941
17.2375
16.5314
14.2954
9.72148
6.70258
2.94455
-2.80087
-10.5686
-18.1077
-19.9168
-20.5809
-21.4209
-20.92
-20.3026
-23.7195
-18.9737
-11.9527
-7.37068
-4.76692
-2.56607
-0.89721
17.4402
17.4014
17.2709
17.0394
16.5876
15.5565
13.4413
9.71333
6.86767
3.15805
-1.93708
-8.51168
-14.7797
-17.0904
-18.4813
-19.9264
-20.4585
-21.8493
-24.5025
-18.8379
-11.3742
-6.83957
-4.35932
-2.27602
-0.438134
17.3597
17.3132
17.1243
16.774
16.134
14.9328
12.932
9.68913
6.21649
2.31233
-2.49363
-8.01334
-13.1569
-16.0581
-18.052
-19.9013
-20.7686
-21.7593
-22.5254
-17.4024
-10.3761
-6.27381
-3.90517
-2.03852
0.00773126
9.49582
8.81358
6.76453
3.27767
-1.39525
-5.89739
-8.99131
-11.2965
-14.6034
-19.3781
-24.868
-30.1389
-33.6929
-34.6061
-33.0454
-30.0093
-26.6576
-23.7822
-21.4145
-19.1808
-16.6591
-13.5605
-9.69219
-5.67453
-2.18832
10.3961
9.79367
8.11288
4.63674
-0.524522
-5.41027
-8.56252
-11.0301
-13.9787
-18.3625
-23.7531
-29.2642
-33.0212
-34.0898
-32.7485
-30.0468
-27.0052
-24.3594
-22.0989
-19.7939
-17.1778
-14.0106
-9.44973
-4.50979
-1.36301
11.9449
11.4213
9.83658
6.51944
0.290468
-6.78868
-10.6171
-13.9352
-17.4366
-21.4152
-25.8815
-30.2991
-33.1881
-33.8716
-32.601
-30.4604
-28.14
-25.5074
-22.7713
-19.533
-15.8554
-11.8247
-6.49898
-2.65891
-0.62539
13.8905
13.4588
12.013
8.5273
1.54373
-6.26074
-11.4775
-17.5974
-23.5776
-27.4044
-30.2756
-33.6285
-35.4861
-35.0999
-33.2293
-30.667
-28.1288
-25.159
-21.7836
-17.8387
-13.6709
-9.50095
-4.93998
-1.87639
-0.577677
15.9825
15.7124
14.6317
11.4289
4.2445
-3.53452
-9.31128
-21.4052
-35.1899
-37.4897
-35.8211
-36.602
-37.1506
-35.7147
-33.272
-30.453
-27.7126
-24.6037
-20.9746
-16.822
-12.5027
-8.27934
-4.03514
-1.56107
-0.564562
17.8565
17.8106
17.3799
15.0824
8.65245
3.40231
2.36856
-26.2753
-68.92
-54.4667
-43.561
-41.404
-40.0279
-36.0299
-32.849
-30.23
-27.4482
-23.9917
-20.0532
-15.8777
-11.5762
-7.32013
-3.50437
-1.39055
-0.561124
19.0604
19.1407
19.2979
18.1934
14.0204
14.1706
23.096
40.6373
-49.0004
-35.9197
-31.0806
-29.3009
-26.8897
-23.141
-19.1478
-15.1996
-11.0787
-6.94168
-3.29203
-1.30847
-0.551179
19.505
19.5958
20.048
19.7993
18.2077
21.5575
31.5592
53.1713
-62.5977
-35.8156
-28.5791
-27.9342
-25.5666
-22.019
-18.4909
-14.826
-10.8672
-6.88975
-3.23533
-1.29607
-0.55868
19.3795
19.4112
19.8616
19.7587
18.5398
20.4847
25.1793
-70.6611
-59.8432
-34.2866
-28.3773
-27.6572
-25.0923
-21.7592
-18.3578
-14.8324
-10.9587
-7.06105
-3.30285
-1.36211
-0.594576
18.9246
18.8539
19.0903
18.5714
16.0119
12.9716
1.21331
-41.7382
-44.2367
-39.9998
-41.6333
-57.969
-43.3104
-33.8033
-29.9114
-28.3251
-25.3402
-21.9281
-18.4699
-14.8273
-11.1215
-7.26755
-3.54402
-1.48009
-0.644885
18.3695
18.1989
18.1374
17.1077
13.3798
8.17668
-3.06657
-20.1749
-29.0107
-32.0697
-35.0351
-37.7101
-35.9239
-32.7601
-30.3959
-28.2962
-25.5142
-22.2569
-18.7346
-15.1506
-11.4742
-7.63569
-3.86739
-1.61594
-0.692521
17.9014
17.6772
17.3404
15.9285
11.7208
6.46678
-1.79871
-11.7388
-18.8911
-23.9037
-28.29
-31.552
-31.9529
-30.7556
-29.2552
-27.599
-25.2729
-22.1893
-19.1759
-15.9341
-12.1468
-8.17784
-4.26798
-1.7731
-0.720252
17.6638
17.4623
16.969
15.425
11.3899
6.95687
1.28547
-5.31088
-11.1841
-16.6144
-22.3778
-26.8118
-28.7224
-28.657
-27.9089
-26.6196
-24.6313
-21.8706
-19.487
-16.7366
-12.8849
-8.8565
-4.82784
-1.9723
-0.746728
17.6523
17.5342
17.1244
15.7579
12.3688
9.31305
5.70236
0.810806
-4.1989
-9.54012
-15.4442
-21.472
-25.8525
-27.212
-26.9204
-26.0126
-24.3729
-21.9821
-19.8931
-17.4691
-13.7648
-9.74231
-5.48815
-2.21302
-0.686559
17.7464
17.7175
17.5727
16.7241
14.532
13.8675
12.049
7.58588
2.82962
-2.24102
-8.16093
-16.0222
-23.2417
-25.6584
-25.9199
-25.582
-24.2736
-22.1899
-20.504
-18.3597
-14.9281
-10.9496
-6.40761
-3.09869
-0.888193
17.7583
17.7425
17.5438
17.1659
19.0574
21.8401
18.679
13.6583
8.78944
3.48423
-3.1351
-12.1776
-20.605
-23.4385
-24.6668
-25.1662
-24.3332
-22.6328
-21.2557
-19.2539
-16.2006
-12.5189
-6.87685
-3.61904
-1.22786
17.673
17.6685
17.68
17.9665
18.6203
18.7548
16.8008
12.6938
8.17319
3.07283
-3.51649
-11.6806
-19.7337
-22.7892
-23.5367
-23.991
-23.2719
-21.3669
-20.905
-18.1197
-13.7977
-9.85567
-6.58292
-3.4252
-1.24751
17.5483
17.524
17.4738
17.3935
17.1921
16.412
14.3301
10.4733
6.81957
2.66671
-3.02837
-10.0067
-16.6361
-19.7215
-21.114
-21.9228
-21.4998
-20.5034
-21.0898
-17.4575
-11.9525
-7.74326
-4.94696
-2.67868
-0.876149
17.4214
17.3859
17.2535
17.0023
16.5088
15.4359
13.3772
10.0579
6.75828
2.88265
-2.19117
-8.19832
-13.9617
-17.2707
-19.1651
-20.5004
-20.7634
-20.8573
-21.3071
-17.1219
-11.255
-7.08716
-4.436
-2.34839
-0.357556
17.3369
17.2945
17.1025
16.7352
16.0648
14.8348
12.8151
9.75698
6.2566
2.26767
-2.53365
-7.89748
-12.9593
-16.418
-18.6386
-20.191
-20.6912
-20.6768
-20.0952
-16.0769
-10.4531
-6.40452
-3.83212
-2.04388
0.121817
9.09756
8.42352
6.42326
3.15251
-0.93598
-4.82881
-7.90558
-10.7255
-14.4905
-19.4339
-24.9574
-30.2064
-33.7907
-34.8416
-33.395
-30.3474
-26.9133
-23.9195
-21.4499
-19.1343
-16.5494
-13.4299
-9.59122
-5.59886
-2.16206
9.90948
9.29094
7.5936
4.26726
-0.157917
-4.08776
-7.18911
-10.2002
-13.7209
-18.3657
-23.8293
-29.3134
-33.0899
-34.338
-33.159
-30.4432
-27.3126
-24.527
-22.1289
-19.7226
-17.0535
-13.8721
-9.37079
-4.49066
-1.34987
11.3292
10.7672
9.08968
5.84088
0.538199
-5.21094
-9.0527
-13.1068
-17.2693
-21.6183
-26.0458
-30.0563
-32.7829
-33.6805
-32.7126
-30.677
-28.2447
-25.5385
-22.7321
-19.4532
-15.7755
-11.7267
-6.3947
-2.63944
-0.637307
13.1337
12.6411
11.0493
7.60545
1.57029
-4.74158
-10.0548
-16.7719
-22.9784
-27.2204
-30.375
-33.1026
-34.5352
-34.4688
-33.1126
-30.7614
-28.1282
-25.1296
-21.6853
-17.7496
-13.5299
-9.37773
-4.85929
-1.88587
-0.610748
15.0882
14.7194
13.3948
10.1557
4.02082
-2.41648
-8.77733
-20.5215
-31.8994
-34.9706
-35.1465
-35.7788
-36.0021
-34.9811
-33.0812
-30.5671
-27.7156
-24.5194
-20.8498
-16.7011
-12.2822
-8.05496
-3.94497
-1.55511
-0.584646
16.8684
16.6711
15.8305
13.2371
7.86305
3.06822
-1.7482
-24.9243
-51.643
-46.045
-41.6044
-40.0553
-38.4957
-35.5628
-32.9497
-30.3997
-27.4117
-23.9195
-19.9613
-15.7302
-11.3332
-7.13383
-3.43986
-1.38416
-0.584785
18.1013
18.0238
17.6907
16.0524
12.2811
10.6011
10.3475
-32.4682
-72.0376
-48.2199
-44.0871
-46.9583
-44.1001
-36.2215
-32.3816
-30.0612
-27.0422
-23.2282
-19.1249
-15.0476
-10.8783
-6.8107
-3.23198
-1.30184
-0.573257
18.668
18.6256
18.627
17.7048
15.3331
15.4589
14.5783
-55.5522
-71.0476
-46.3407
-44.4267
-51.8797
-49.4163
-36.0383
-31.1254
-29.2324
-26.162
-22.4246
-18.5662
-14.6984
-10.7045
-6.7285
-3.17054
-1.29147
-0.579576
18.6847
18.6029
18.6692
17.8956
15.4923
14.393
9.01307
-78.7902
-55.2437
-42.3307
-43.7124
-53.4773
-46.9608
-34.9003
-30.7092
-28.7763
-25.7271
-22.1063
-18.4257
-14.7196
-10.822
-6.90077
-3.24061
-1.35341
-0.613351
18.3611
18.1976
18.1093
17.0012
13.5031
9.1621
-2.49974
-31.7172
-38.4016
-37.6791
-40.1609
-45.1602
-39.342
-33.8487
-30.86
-28.6598
-25.55
-22.0893
-18.4387
-14.7259
-10.9952
-7.14762
-3.47597
-1.46335
-0.660328
17.9288
17.6903
17.3582
15.8383
11.4601
5.78541
-4.13035
-17.8473
-26.3107
-30.1698
-33.1248
-35.3289
-34.35
-32.2626
-30.3241
-28.105
-25.4055
-22.198
-18.5379
-14.9182
-11.3393
-7.49346
-3.76073
-1.59562
-0.705957
17.5891
17.322
16.7834
15.007
10.3799
4.9561
-2.50242
-11.1491
-18.0258
-23.0788
-27.0157
-29.9581
-30.8764
-30.2539
-28.9932
-27.2818
-25.0607
-22.1186
-18.8644
-15.5252
-11.9561
-8.06505
-4.14738
-1.77359
-0.74537
17.4718
17.2495
16.6239
14.8494
10.5649
6.03261
0.657409
-5.47558
-11.1807
-16.4186
-21.3021
-25.3816
-27.6841
-28.1534
-27.6126
-26.4474
-24.6085
-22.0165
-19.3049
-16.248
-12.6884
-8.79223
-4.7347
-1.96165
-0.771673
17.5566
17.4404
16.9818
15.5051
11.9907
8.90301
5.28449
0.45569
-4.551
-9.82416
-15.2703
-20.5542
-24.5531
-26.3102
-26.5148
-25.9134
-24.5361
-22.3163
-19.9332
-17.1913
-13.643
-9.69664
-5.44213
-2.25896
-0.709846
17.7254
17.7202
17.5971
16.7447
14.5255
13.8805
11.8409
7.3171
2.3799
-2.91019
-8.82109
-15.3958
-21.3025
-24.3749
-25.5174
-25.6387
-24.5679
-22.5799
-20.6468
-18.2105
-14.8157
-10.9151
-6.43797
-3.23472
-0.911838
17.7718
17.7863
17.6361
17.3961
19.5121
22.0804
18.6296
13.5344
8.43771
2.81616
-3.73866
-11.5118
-18.6564
-22.7145
-24.9023
-25.6357
-24.9045
-23.2639
-21.438
-19.1258
-16.2382
-12.7026
-7.06752
-3.8187
-1.2425
17.6879
17.7024
17.7715
18.1486
18.8758
18.9804
16.9412
12.8459
8.00056
2.64252
-3.83311
-11.1563
-18.1962
-22.3162
-23.9964
-24.5196
-23.768
-21.9207
-20.3746
-17.6115
-13.8362
-10.0774
-6.74317
-3.57162
-1.21926
17.5495
17.5307
17.4987
17.4332
17.2243
16.4185
14.3755
10.8544
6.89432
2.42267
-3.15946
-9.63293
-15.7633
-19.5455
-21.4338
-22.229
-21.8716
-20.7296
-19.7475
-16.5767
-11.9813
-8.0035
-5.09186
-2.83816
-0.791041
17.4116
17.3782
17.2491
16.9934
16.4836
15.3935
13.3685
10.254
6.74026
2.67634
-2.31288
-8.00195
-13.4858
-17.3169
-19.5605
-20.7915
-20.8852
-20.3131
-19.3973
-15.9798
-11.2038
-7.25861
-4.5066
-2.46096
-0.286721
17.322
17.2815
17.0893
16.7143
16.0273
14.7837
12.7625
9.82023
6.30474
2.25208
-2.51894
-7.76578
-12.7739
-16.5531
-18.9447
-20.3033
-20.5092
-19.8767
-18.5246
-15.1019
-10.4055
-6.53096
-3.84832
-2.10702
0.159859
8.79242
8.13474
6.20341
3.13888
-0.517685
-3.99423
-7.08423
-10.2967
-14.4281
-19.5157
-25.0823
-30.2961
-33.8703
-34.9952