/*--------------------------------*- C++ -*----------------------------------*\
  =========                 |
  \\      /  F ield         | OpenFOAM: The Open Source CFD Toolbox
   \\    /   O peration     | Website:  https://openfoam.org
    \\  /    A nd           | Version:  6
     \\/     M anipulation  |
\*---------------------------------------------------------------------------*/
FoamFile
{
    version     2.0;
    format      ascii;
    class       volScalarField;
    location    "40";
    object      epsilon;
}
// * * * * * * * * * * * * * * * * * * * * * * * * * * * * * * * * * * * * * //

dimensions      [0 2 -3 0 0 0 0];

internalField   nonuniform List<scalar> 
230684
(
0.194861
0.172291
0.151519
0.13794
0.244388
0.215109
0.194208
0.0883984
0.0858481
0.0849192
0.0853912
0.087811
0.0924155
0.100712
0.114144
0.134841
0.165218
0.208346
0.263272
0.329133
0.394473
0.459733
0.515154
0.551658
0.573812
0.193413
0.174672
0.300555
0.24031
0.374746
0.355256
0.717991
0.255597
0.214383
0.185701
0.188738
0.238098
0.279164
0.308406
0.362242
0.455628
0.606063
0.803351
1.01424
1.21405
1.29165
1.36476
1.37983
1.33275
1.10644
0.193973
0.173746
0.306493
0.423971
0.353508
1.45841
0.946734
0.928949
0.761996
0.507601
0.405932
0.439518
0.603585
0.616335
0.665523
0.832907
1.2044
1.65139
1.8971
1.95438
1.97341
1.95929
1.47456
0.840137
0.677033
0.199264
0.333162
0.529931
0.390921
0.24148
1.63004
1.3263
0.864343
0.754414
1.23609
1.2445
4.85829
1.79063
1.13841
0.860736
0.36954
0.417781
0.430302
0.423486
0.454923
0.526685
0.596973
0.476866
0.327276
0.275221
0.193659
0.174259
0.301396
0.40271
0.287062
0.309117
0.369348
0.486617
0.433654
0.768468
1.24736
5.61192
2.13635
1.23553
1.10181
0.399998
0.457571
0.454002
0.409122
0.441216
0.51557
0.574775
0.492656
0.313521
0.256938
0.193737
0.173736
0.300244
0.370774
0.330895
0.634119
0.332794
0.422612
1.19033
1.91841
1.53807
1.63913
1.54892
0.447022
0.744191
0.250428
0.31989
0.282721
0.255061
0.245581
0.302357
0.397158
0.392979
0.27707
0.231531
0.193848
0.173747
0.300574
0.372039
0.988308
0.588553
0.228829
0.3082
0.263582
0.210906
0.187153
0.418555
0.362582
0.524471
0.320294
0.542326
0.660519
0.679249
0.579052
0.506688
0.49812
0.528512
0.427362
0.26563
0.223486
0.194075
0.173768
0.304406
0.404936
0.25371
0.189552
0.111354
3.2615
1.64264
1.05265
0.62982
0.432824
1.54679
2.9461
3.84841
3.14679
1.91899
1.12498
0.757178
0.609652
0.527494
0.482891
0.358658
0.237427
0.196915
0.194173
0.173902
0.306408
0.419721
0.284521
0.200019
0.126982
3.8525
2.16883
1.18006
0.744395
0.564574
3.11936
3.08446
4.28769
3.37016
1.79879
0.94785
0.599716
0.463846
0.416111
0.402969
0.317953
0.234517
0.194895
0.194221
0.174
0.307271
0.425079
0.293576
0.21375
0.158486
0.721704
1.75552
0.777583
0.713439
0.796438
1.84796
0.926706
0.533781
1.7396
1.92258
1.24303
0.858668
0.685186
0.642557
0.59526
0.447009
0.306917
0.250939
0.194224
0.174099
0.307723
0.424429
0.286754
0.627347
0.271394
1.10532
0.891534
0.657422
0.609292
0.969228
1.22043
0.749023
0.597106
0.579076
0.807871
0.989888
1.02541
0.988502
0.922417
0.829646
0.513367
0.310338
0.271309
0.194277
0.174097
0.308486
0.433836
0.309143
0.229352
0.468834
0.266361
1.01475
0.526321
0.497559
0.312713
0.163767
0.170682
0.203172
0.259303
0.349714
0.253143
0.662352
0.855539
0.665309
0.565483
0.43076
0.234484
0.203078
0.194319
0.174073
0.309088
0.439788
0.316707
0.249713
0.216809
0.460589
0.643453
0.483267
0.645153
0.597005
0.648802
1.46889
0.829191
0.715221
0.151476
0.366718
3.58842
0.925947
0.552614
0.380677
0.294083
0.256864
0.126066
0.194328
0.174087
0.309369
0.441942
0.322086
0.254875
0.236672
0.420927
0.577108
0.689457
0.759249
0.896507
1.27516
0.752493
1.03841
0.366348
0.288103
0.526758
2.46809
1.64923
2.28018
0.889189
0.788479
0.259344
0.102407
0.194307
0.174121
0.309512
0.44277
0.321638
0.25072
0.267974
0.578823
0.825655
0.926018
0.90295
4.72939
3.30378
1.54945
0.530553
0.608704
0.55627
0.459048
0.510444
0.782654
0.920947
1.79398
1.5908
0.732131
0.202717
0.192746
0.176888
0.299826
0.241155
0.19915
0.17051
0.144369
0.152388
0.225622
0.417822
0.820707
8.07102
2.98557
2.08221
1.08486
1.12049
0.706833
0.393568
0.504415
1.38564
1.03082
0.80347
0.300106
0.247538
0.22993
0.1957
0.171881
0.151894
0.137422
0.122495
0.114047
0.197245
0.171955
0.0900828
0.163057
0.358872
0.447237
3.39586
2.06493
1.14597
0.464799
0.52788
1.094
2.81011
0.83448
0.833948
0.317546
0.222434
0.593038
0.497412
0.196678
0.170268
0.153684
0.134749
0.12599
0.213832
0.354549
0.335099
0.229699
0.136381
0.221594
0.411875
0.479444
0.644088
0.716862
0.55781
0.558542
0.545092
13.5536
4.35704
2.63734
1.39714
1.15281
1.04909
0.836679
0.195677
0.172108
0.15168
0.137744
0.122677
0.114609
0.195187
0.474101
0.206253
0.096304
0.179314
0.765292
1.54144
0.554716
0.479138
0.423593
0.371772
0.592741
11.0381
5.11914
1.36251
0.855938
0.78666
0.760262
0.663136
0.195917
0.171723
0.152183
0.137065
0.124122
0.113425
0.105099
0.0967071
0.0922652
0.0842049
0.0814934
0.156352
0.145794
0.0735181
0.0761255
0.0821245
0.165085
0.398667
0.737058
0.388133
0.242379
0.258672
0.271358
0.281734
0.289633
0.0369551
0.0413192
0.044707
0.0490743
0.0609856
0.0686099
0.0676418
0.0736582
0.0670084
0.06161
0.0591543
0.0557352
0.0569114
0.0602697
0.0671282
0.0791279
0.098299
0.125938
0.160715
0.200009
0.238223
0.274002
0.303032
0.323938
0.335868
0.0371439
0.0407951
0.0547228
0.057865
0.126072
0.414537
0.614242
0.688121
0.390376
0.285428
0.235951
0.231384
0.224303
0.21782
0.238175
0.273652
0.337873
0.424175
0.517697
0.602131
0.669922
0.697767
0.706961
0.78428
0.707512
0.0374747
0.0416931
0.0544988
0.0727731
0.426836
3.77963
2.59409
1.53236
0.99026
0.594158
0.400935
0.333303
0.381674
0.487103
0.610339
0.722531
0.778392
0.803208
0.817265
0.826215
0.72682
0.546908
0.472554
0.0378306
0.0481525
0.0555216
0.115304
0.288011
1.65039
0.943848
0.595128
0.48436
5.27302
0.944433
0.462312
0.318627
0.238503
0.198888
0.191933
0.212025
0.241353
0.222133
0.187594
0.178541
0.037882
0.0427775
0.0576789
0.0803941
0.132632
0.586979
0.444664
0.661781
1.32693
1.17166
0.857259
3.31754
1.14869
0.425725
0.190793
0.117993
0.118027
0.165188
0.234526
0.243014
0.19622
0.167188
0.0379547
0.0429129
0.0613837
0.0908186
0.446003
2.36315
2.18314
1.19514
1.87488
3.34275
1.83802
0.994354
0.660974
0.355374
0.202851
0.135908
0.125924
0.175811
0.190836
0.164821
0.13964
0.0377638
0.0423902
0.0601414
0.0924559
0.928466
0.294281
1.68318
1.13786
1.02579
0.730817
0.483147
0.329506
0.249493
0.199065
0.184599
0.198383
0.18769
0.15668
0.13331
0.0374621
0.042087
0.0517233
0.074283
0.15014
0.216686
0.313759
1.63234
1.89323
1.27347
1.20269
1.09341
0.719078
0.390592
0.199972
0.136569
0.148405
0.183403
0.176891
0.143623
0.129788
0.0372496
0.0409697
0.0501835
0.0679258
0.0689126
0.0691567
0.106867
1.12119
1.14923
1.58484
1.25508
0.653611
0.305174
0.155407
0.119936
0.145053
0.174552
0.176014
0.154755
0.12824
0.0371342
0.0405133
0.0509477
0.0662894
0.0660876
0.0655937
0.0925797
1.75528
4.62924
3.79078
3.41783
2.6882
2.35115
2.61139
1.62336
0.755361
0.624907
0.428382
0.273559
0.201878
0.188081
0.202278
0.206533
0.181856
0.15732
0.0370383
0.0402607
0.0506805
0.0659728
0.120513
1.16631
0.635634
0.999906
0.525574
0.439587
0.402145
0.42216
0.456061
0.435024
0.38228
0.328682
0.296933
0.303386
0.2942
0.247794
0.211995
0.0369204
0.0400297
0.0498168
0.0647235
0.0670629
0.131867
0.832491
0.84959
0.250255
0.740972
1.62152
1.8179
1.00978
0.520208
0.373004
0.257953
0.190659
0.14898
0.0367652
0.0400609
0.0480776
0.0634503
0.0617122
0.0618702
0.110711
0.845305
0.912639
1.16771
1.60852
2.22782
0.480022
1.2547
1.02005
0.205822
0.460196
0.706911
0.317999
0.203725
0.113883
0.0367276
0.0394451
0.0489862
0.062464
0.0595851
0.0555505
0.104338
0.22204
0.268344
0.294857
0.43983
0.796562
1.9322
0.788973
1.3927
1.88676
0.655712
0.45028
3.76447
0.827952
0.612746
0.277138
0.146137
0.03662
0.0398112
0.0476152
0.0619345
0.058501
0.0539883
0.115188
0.249691
0.286111
0.272278
0.303207
4.92402
5.00701
1.65011
0.803901
0.489577
0.379571
0.397356
0.634938
1.00538
1.33036
1.51783
0.54463
0.202266
0.0366017
0.0403566
0.0486871
0.0525495
0.0509332
0.0468382
0.04926
0.0679414
0.11549
0.161069
0.258372
15.9479
1.19651
1.76284
0.725518
0.482626
0.911509
0.486651
0.331636
0.0367945
0.0402272
0.0415725
0.0421403
0.0416961
0.039884
0.0440359
0.0471773
0.0591867
0.0639542
0.0987818
0.727176
0.25235
2.25779
2.21294
5.26783
2.55244
1.38876
0.873205
0.806557
0.855449
0.635421
0.0368497
0.0402246
0.0416447
0.0421807
0.0413144
0.0480534
0.0526593
0.791379
0.59172
0.32598
0.241668
0.19316
0.869525
6.47401
2.07913
1.80023
1.3936
5.04343
6.14197
2.89573
2.03308
1.64289
1.15762
0.0368142
0.0402313
0.0415602
0.0421651
0.0418643
0.0407085
0.049912
1.89645
0.467796
0.16291
0.161137
0.517314
1.62446
0.469495
0.475949
0.43223
1.95307
7.15108
5.39868
1.85167
1.39665
1.19745
0.870369
0.0368173
0.0402035
0.0415551
0.0419608
0.0414916
0.0407849
0.0405729
0.0405274
0.0398254
0.0409804
0.0414337
0.0521919
0.0594614
0.0553217
0.0709492
0.0840433
0.119315
0.231294
2.66522
0.839484
0.389581
0.354231
0.322
0.299047
0.276408
0.0295335
0.0294526
0.0300407
0.031682
0.0355926
0.0399465
0.0412004
0.0443064
0.0429155
0.0417036
0.0425271
0.0449444
0.0493926
0.0566804
0.0684223
0.0863546
0.111754
0.144985
0.184865
0.227026
0.26658
0.301566
0.328956
0.346722
0.354083
0.029554
0.0295259
0.0307746
0.0327159
0.0717492
0.11688
0.14381
0.148974
0.132431
0.122479
0.132924
0.152968
0.17809
0.208671
0.255526
0.323617
0.41061
0.505985
0.597942
0.676905
0.738132
0.782511
0.783963
0.841677
0.712192
0.0296283
0.0296636
0.0312052
0.0354074
0.199316
1.76291
0.978549
0.53488
0.394261
0.337942
0.266833
0.196564
0.182656
0.244395
0.353832
0.475886
0.597018
0.702142
0.773083
0.818133
0.852755
0.875837
0.759977
0.541847
0.4736
0.029676
0.0296582
0.0308503
0.035213
0.0862112
1.67337
0.954099
0.448022
0.306937
0.225114
0.177719
0.823172
0.699213
0.434311
0.287245
0.219183
0.175961
0.154964
0.151197
0.150716
0.15436
0.169291
0.150611
0.124557
0.132178
0.0297183
0.029964
0.0323029
0.0381464
0.11281
0.994748
1.48884
1.40402
1.52318
1.09705
0.657645
1.62018
1.7071
1.04866
0.528034
0.282991
0.151096
0.0821725
0.0601757
0.0561703
0.0663764
0.0936155
0.108079
0.0910295
0.0872806
0.0297134
0.0301405
0.033111
0.0484569
0.648991
3.69198
3.3961
2.61176
1.56837
1.19946
0.705349
0.43997
0.272638
0.161528
0.100432
0.0737584
0.0601174
0.0600298
0.0781971
0.0902042
0.0767579
0.0732512
0.0296537
0.0298753
0.0326848
0.0482484
4.39154
2.41961
1.27061
0.839773
0.538264
0.333773
0.244592
0.190917
0.1277
0.0823524
0.0761787
0.0864033
0.0878352
0.0759733
0.0718806
0.0295862
0.0296633
0.031001
0.0370411
0.106149
0.214614
0.354152
2.68756
0.811012
1.49446
1.46844
0.956919
0.575761
0.31092
0.139866
0.0727515
0.0757799
0.0965215
0.0992225
0.0821909
0.0786592
0.0295561
0.0294567
0.0304404
0.0335926
0.0365295
0.0446805
0.211343
1.78032
1.02408
1.80609
1.32358
0.90987
0.554904
0.27199
0.11677
0.0660567
0.0770839
0.101955
0.102951
0.0845543
0.0779034
0.0295305
0.029362
0.0303198
0.0327734
0.0344973
0.0396078
0.120448
2.23965
3.16968
4.90952
3.67936
1.6609
1.28762
0.641722
0.330395
0.287336
0.289164
0.214804
0.119455
0.0785762
0.0831805
0.0985959
0.0997081
0.0865305
0.0846078
0.0295131
0.0293188
0.0302031
0.0325952
0.0363348
0.080416
1.00229
7.09232
4.34835
3.5187
2.74394
1.27319
0.682851
0.402177
0.295832
0.27654
0.279504
0.265467
0.205048
0.156594
0.137954
0.139893
0.13528
0.119012
0.11426
0.0294957
0.0292522
0.0300403
0.0321422
0.0342218
0.0460014
0.206887
1.09206
2.25816
2.53811
1.65031
1.74341
1.4607
1.40587
1.38137
1.40513
1.27346
0.527456
0.408585
0.338156
0.27346
0.206551
0.153192
0.114437
0.104855
0.0294738
0.0291946
0.0299119
0.0316643
0.0323752
0.041479
0.111426
0.188645
0.406984
0.93316
4.27105
3.14958
1.3613
0.640971
0.501289
0.61381
0.307657
0.540861
2.12227
0.915875
0.501731
0.238795
0.122098
0.0864053
0.0734155
0.0294618
0.0291328
0.0298436
0.0313663
0.0316092
0.0418196
0.136481
0.164062
0.132466
0.134129
0.231545
0.337223
0.446682
0.421501
0.349265
0.283012
0.232832
0.187446
0.315832
0.627138
0.394474
0.240121
0.144619
0.0972375
0.0822511
0.0294506
0.0291163
0.0297836
0.0312062
0.0311825
0.0440664
0.146506
0.180884
0.120952
0.0950231
0.11171
0.880568
3.95288
1.88366
0.835956
0.418059
0.232775
0.162174
0.149247
0.205228
0.25024
0.227078
0.177389
0.188407
0.157309
0.0294444
0.0291829
0.029903
0.0301324
0.0297188
0.0313899
0.0443166
0.0797748
0.111202
0.110887
0.13318
1.31728
5.51296
2.93217
1.83629
1.17873
0.563416
0.376826
0.296004
0.304672
0.321286
0.333118
0.341119
0.408665
0.364148
0.0294556
0.0291179
0.0287813
0.0284058
0.0279927
0.0270623
0.028533
0.0316583
0.0431036
0.0520795
0.0702134
0.429056
3.66236
5.53005
3.48972
2.07406
1.08911
0.875459
1.04763
1.00711
0.978012
0.892673
0.804761
0.747681
0.620898
0.0294634
0.0291163
0.0287879
0.0284411
0.0279823
0.0292017
0.0315434
0.24863
0.283879
0.17699
0.156243
0.148991
0.254555
0.407128
0.47791
0.484029
0.482597
0.611271
3.78725
2.55603
1.85383
1.13282
1.0348
0.946855
0.78878
0.0294639
0.0291136
0.0287853
0.0284746
0.0279832
0.0275045
0.0315163
1.40681
0.206563
0.0866832
0.112771
0.140039
0.19441
0.219277
0.161726
0.189475
0.21453
0.570083
2.11882
1.2689
0.710026
0.65892
0.595516
0.565631
0.474959
0.0294637
0.0291126
0.0287744
0.0284296
0.028021
0.0275263
0.0273247
0.0272078
0.0270074
0.0280439
0.0293079
0.0313853
0.0331685
0.0363742
0.0409466
0.045784
0.0659493
0.127319
0.275444
0.371429
0.251399
0.255519
0.249204
0.246401
0.225989
0.029264
0.0280417
0.0273872
0.027729
0.028897
0.0302015
0.0307058
0.0313121
0.031814
0.0327834
0.0350347
0.0395667
0.0471463
0.0588236
0.0759028
0.0995156
0.13037
0.168826
0.21353
0.258891
0.300286
0.335959
0.364193
0.383176
0.38654
0.0292713
0.0281197
0.0277307
0.0281472
0.0327088
0.0436934
0.0520147
0.0598652
0.0669631
0.0748545
0.0869575
0.114017
0.156904
0.211285
0.281893
0.369099
0.468621
0.569452
0.661045
0.737365
0.79235
0.829719
0.840379
0.873092
0.738995
0.0293036
0.0281739
0.0278701
0.0286227
0.0395594
0.117742
0.149476
0.146929
0.137213
0.113516
0.0989602
0.115412
0.159159
0.231493
0.331585
0.450916
0.576595
0.687267
0.76524
0.817606
0.859149
0.888407
0.764761
0.535269
0.475797
0.0293407
0.028196
0.0279754
0.0286909
0.0346016
0.0846342
0.12291
0.126994
0.120149
0.109114
0.0961673
0.0991796
0.113903
0.118592
0.119375
0.117026
0.114265
0.116227
0.119408
0.121885
0.124061
0.13062
0.107312
0.093121
0.103201
0.0293588
0.028209
0.0283042
0.0300932
0.0455521
0.170581
0.280256
0.386819
0.797581
0.938429
0.657944
0.395983
0.310592
0.229543
0.168534
0.116095
0.0724104
0.0466274
0.0368768
0.033645
0.0340489
0.0383055
0.0407785
0.0398687
0.0440817
0.0293326
0.0282295
0.0287425
0.0336339
0.169609
0.875639
0.774082
2.42936
5.20975
2.30445
2.46713
1.94835
0.915378
0.323661
0.181536
0.12667
0.0855839
0.0589771
0.0428377
0.034162
0.0324588
0.0353625
0.0375287
0.035393
0.0368636
0.0293204
0.0281216
0.0285354
0.0335285
0.224939
0.749676
0.678311
2.46607
0.817244
0.56063
0.28809
0.202422
0.170668
0.137124
0.0862382
0.0451024
0.0352002
0.0364948
0.03727
0.0356009
0.0366331
0.0292906
0.028072
0.027967
0.0295133
0.0392464
0.087778
0.271891
5.49366
0.682285
1.1935
0.912654
0.598332
0.394336
0.249696
0.129598
0.0537817
0.0378488
0.0404291
0.0410903
0.0385492
0.0394498
0.0292729
0.0280626
0.0276656
0.0278337
0.0290627
0.0370565
0.413608
1.80847
1.0109
1.3456
0.882666
0.594247
0.394386
0.232035
0.110452
0.0459303
0.0377781
0.0421776
0.0422469
0.0386504
0.0396738
0.0292602
0.028067
0.027534
0.0273609
0.0278397
0.0337623
0.143731
2.84933
4.4783
4.32944
2.73886
1.62752
0.826001
0.333454
0.22417
0.210305
0.205891
0.147502
0.0775338
0.041398
0.0376455
0.0406208
0.0409397
0.039164
0.0410076
0.0292571
0.0280631
0.0274657
0.0272244
0.0278844
0.0367087
0.131388
0.831337
1.24971
1.26479
0.994986
0.603981
0.286695
0.143575
0.126719
0.134002
0.136569
0.1229
0.0931427
0.0716574
0.0617228
0.056868
0.0534367
0.0503044
0.0514143
0.0292603
0.028042
0.0273984
0.0270504
0.027513
0.0409772
0.110682
0.344201
0.978651
1.15249
1.13977
0.732157
0.293992
0.155445
0.134834
0.147996
0.178458
0.183842
0.177496
0.16108
0.133368
0.107376
0.0800734
0.0600161
0.0566294
0.0292661
0.028006
0.0273441
0.02688
0.0269722
0.0442174
0.114964
0.11881
0.140758
0.182117
0.267731
0.262202
0.21375
0.180478
0.165404
0.152054
0.131817
0.120527
0.226485
0.285311
0.149994
0.10134
0.0720719
0.0528089
0.0488805
0.029273
0.0279724
0.0273143
0.0267671
0.0268372
0.0487036
0.137384
0.114939
0.0754157
0.0681164
0.0752851
0.107973
0.153901
0.16781
0.159715
0.12617
0.0984189
0.0875977
0.0953055
0.128555
0.118294
0.0979666
0.0717883
0.0691
0.0677808
0.0292721
0.027963
0.0272903
0.0266879
0.0267611
0.0520171
0.151723
0.13545
0.0764586
0.0507449
0.0510915
0.0937269
0.453463
0.517267
0.358609
0.210435
0.120678
0.0846861
0.0778775
0.0927824
0.113631
0.12555
0.154759
0.225686
0.194035
0.0292522
0.0279883
0.0273007
0.0264646
0.0255581
0.0290929
0.0462757
0.0910482
0.102143
0.0886826
0.075865
0.140453
0.38372
0.503224
0.496459
0.451759
0.38162
0.322355
0.298946
0.306974
0.346465
0.380626
0.44513
0.443188
0.417721
0.0292317
0.0280233
0.0268683
0.0258779
0.0251681
0.0239813
0.0241876
0.0269297
0.0342959
0.0429353
0.0587046
0.0886433
0.141463
0.166784
0.247999
0.306294
0.26086
0.343357
0.412454
0.447291
0.496137
0.540163
0.536168
0.557216
0.532343
0.0292604
0.0279702
0.0269343
0.02585
0.0251509
0.0241804
0.0249204
0.0334478
0.0402192
0.044856
0.0507886
0.0592339
0.0722358
0.0911839
0.111638
0.137571
0.144566
0.202893
0.327324
0.354619
0.387066
0.437478
0.468395
0.497314
0.483622
0.0292726
0.0279547
0.0269415
0.0258462
0.0251927
0.0241046
0.0241718
0.0280729
0.0278428
0.0311418
0.0352789
0.0410052
0.0461979
0.055941
0.0657015
0.0852094
0.0956871
0.144746
0.249017
0.233052
0.27134
0.287581
0.294885
0.308743
0.298245
0.0292665
0.0279711
0.0269116
0.0258912
0.025114
0.0242367
0.0237176
0.0232674
0.0228021
0.0228946
0.0234461
0.024359
0.0252983
0.0267342
0.0289204
0.0326087
0.0394549
0.055432
0.0886602
0.120491
0.148314
0.170159
0.17354
0.180037
0.182373
0.0292359
0.0280224
0.0268855
0.0267333
0.0269348
0.0273195
0.0273114
0.0273826
0.0277986
0.0289674
0.0318372
0.0376672
0.0476045
0.0629223
0.084353
0.112272
0.147129
0.189362
0.237518
0.284978
0.327457
0.363555
0.391938
0.41492
0.411015
0.0292709
0.0280156
0.0272522
0.0269857
0.0279502
0.0299884
0.03345
0.0399381
0.0467175
0.054705
0.0706393
0.105027
0.157491
0.226932
0.312091
0.409044
0.512429
0.613115
0.701868
0.774209
0.824924
0.869878
0.870684
0.887823
0.756451
0.0292987
0.0280567
0.0273311
0.027167
0.0289888
0.0370026
0.0580329
0.0720502
0.0688303
0.0623803
0.0737602
0.111227
0.169587
0.24584
0.342438
0.459026
0.581329
0.689125
0.766202
0.818184
0.858574
0.885036
0.759938
0.529076
0.475544
0.0293256
0.0280873
0.0274215
0.0273405
0.0289427
0.0370501
0.0555908
0.0662951
0.0658843
0.0660403
0.0653279
0.062334
0.0610169
0.0627193
0.0697552
0.0783729
0.0876113
0.0969254
0.104648
0.108875
0.113541
0.117962
0.0963962
0.0838166
0.0947749
0.0293619
0.0280561
0.0275427
0.0279402
0.0320289
0.0494097
0.0856965
0.159972
0.484421
0.679809
0.479044
0.258357
0.148025
0.0961066
0.0719891
0.0561532
0.0426369
0.0332298
0.028278
0.0260678
0.0255209
0.0258476
0.0259591
0.0272697
0.0298447
0.029376
0.027975
0.0278102
0.0291198
0.0422823
0.110326
0.215088
2.65287
10.6587
3.9906
3.55779
1.84532
0.548474
0.202598
0.11327
0.0790668
0.058897
0.0442241
0.0326238
0.0261398
0.0242239
0.0242668
0.0243487
0.0237469
0.0243146
0.0293329
0.0279733
0.0276804
0.028874
0.0400257
0.0964987
0.279557
4.04345
0.685523
0.350368
0.231062
0.174768
0.143893
0.11541
0.0755074
0.0368545
0.0255541
0.0244991
0.0243229
0.0237292
0.0240905
0.0292878
0.0279827
0.0273317
0.0274989
0.0297517
0.0438733
0.318072
8.78695
0.558035
1.26814
0.62251
0.326962
0.23167
0.174117
0.11032
0.0466481
0.0269235
0.0253163
0.0249916
0.0243473
0.0248491
0.0292719
0.0279751
0.0271855
0.026695
0.0271421
0.0356361
0.5851
1.8429
1.41239
1.17541
0.493188
0.333358
0.236883
0.160078
0.0899489
0.0375887
0.0262012
0.0255147
0.0251788
0.0244394
0.025013
0.0292608
0.0279807
0.0271114
0.02642
0.0264073
0.0338698
0.162739
3.03346
4.56795
3.3989
2.16817
1.21066
0.515832
0.233837
0.199326
0.185264
0.161912
0.11565
0.0629792
0.0314039
0.0257511
0.0253752
0.0251613
0.02472
0.0255899
0.0292613
0.0279756
0.0270603
0.0263199
0.026258
0.0369263
0.0909049
0.165411
0.355553
0.514049
0.478549
0.315694
0.165951
0.106118
0.0928667
0.083901
0.0735277
0.0600533
0.0453458
0.0369254
0.03307
0.0304465
0.0286824
0.0282801
0.028815
0.0292694
0.0279487
0.0270202
0.0262314
0.0261682
0.0430172
0.0999037
0.114919
0.1713
0.246087
0.24423
0.164245
0.099022
0.07702
0.0733872
0.0714965
0.0697976
0.0670712
0.0640041
0.0604803
0.0538828
0.0464611
0.0378755
0.032454
0.0322903
0.0292818
0.0279068
0.027
0.0261322
0.026092
0.0492356
0.11259
0.0928526
0.0786459
0.0791042
0.085569
0.085582
0.0824857
0.0801786
0.0774753
0.0692824
0.0601462
0.0570456
0.0616876
0.0703124
0.0596538
0.0493309
0.0383418
0.0334383
0.0342161
0.0292922
0.0278708
0.0270047
0.0260342
0.0261882
0.0560693
0.133606
0.101871
0.0612844
0.0442219
0.0424131
0.0496106
0.06378
0.0746095
0.0733015
0.0599017
0.04843
0.0442133
0.0454503
0.0517491
0.0498608
0.0450508
0.0420794
0.0644171
0.0682084
0.0292912
0.0278679
0.0269904
0.0259514
0.0262507
0.0593073
0.153092
0.123425
0.0684421
0.0411414
0.0365878
0.0448278
0.0813187
0.124912
0.120205
0.0904641
0.0669431
0.061421
0.0679822
0.0843528
0.106901
0.129397
0.193019
0.286893
0.249297
0.0292554
0.027928
0.0269471
0.0258914
0.0248353
0.029414
0.0485042
0.0944948
0.0995763
0.0828656
0.0601639
0.0598965
0.0907417
0.162593
0.216852
0.246419
0.264139
0.279114
0.310636
0.355523
0.410276
0.462804
0.508823
0.489307
0.470085
0.0292297
0.027964
0.0266011
0.025485
0.0245794
0.0232015
0.0233675
0.0263481
0.0336604
0.0423604
0.0562542
0.0656607
0.0756651
0.0869334
0.101895
0.123681
0.149512
0.185714
0.230588
0.296406
0.356053
0.415734
0.453185
0.486865
0.48433
0.0292697
0.0278847
0.0267075
0.025426
0.0245371
0.0234628
0.0228215
0.023111
0.0246024
0.0267055
0.0306796
0.0387224
0.0490539
0.0606466
0.0718997
0.0867393
0.098952
0.117178
0.137456
0.176228
0.207494
0.241725
0.280503
0.341181
0.364911
0.0292786
0.0278827
0.0266842
0.0254713
0.0245305
0.0234318
0.0229096
0.0220922
0.0221557
0.0227043
0.023859
0.0260406
0.0287257
0.0341958
0.0413875
0.0544038
0.0671518
0.0863531
0.107201
0.133288
0.152835
0.17673
0.189582
0.216948
0.224375
0.0292754
0.0278919
0.0266694
0.0254891
0.0245039
0.0235186
0.0227148
0.0221638
0.0215877
0.0211316
0.0212706
0.0216656
0.0222247
0.0232037
0.0250054
0.0283798
0.035006
0.0491843
0.0677057
0.0899386
0.110426
0.131304
0.145481
0.152918
0.157692
0.0292497
0.0279744
0.0269142
0.0263037
0.0262199
0.0261573
0.025853
0.0256758
0.0260813
0.0274309
0.0308277
0.0377834
0.04986
0.0682232
0.093192
0.124462
0.162283
0.207231
0.257717
0.306642
0.350086
0.3867
0.415303
0.438017
0.432257
0.0292709
0.0279933
0.0272087
0.0265762
0.0267217
0.0271296
0.0289561
0.0334065
0.0394935
0.0478273
0.0660069
0.104115
0.163477
0.243696
0.3395
0.443096
0.547737
0.645901
0.731499
0.79961
0.848108
0.891862
0.890951
0.898359
0.770845
0.0292918
0.0280334
0.0272566
0.0267713
0.026964
0.0289064
0.0436601
0.0543539
0.0509332
0.0490997
0.0670899
0.111073
0.178902
0.264014
0.36517
0.479724
0.594667
0.695725
0.768675
0.8189
0.856567
0.880124
0.75432
0.525001
0.47637
0.029311
0.0280644
0.0273206
0.0269218
0.0272715
0.0303968
0.0433306
0.0495935
0.0466238
0.0455952
0.0460533
0.048559
0.0490896
0.0506194
0.0568082
0.0666761
0.0779405
0.0883935
0.0966205
0.102865
0.108531
0.11296
0.0903368
0.0834808
0.0944706
0.0293272
0.0280699
0.0273715
0.0272106
0.028312
0.033228
0.0495263
0.0854324
0.2485
0.353382
0.260292
0.157074
0.0985126
0.0648448
0.0483808
0.0400374
0.0338365
0.0289687
0.0258401
0.0243202
0.023734
0.0235293
0.0232975
0.024751
0.0269079
0.0293318
0.0280426
0.027404
0.0275932
0.0301522
0.0391228
0.0833166
2.27849
6.58887
4.42899
1.76172
0.718899
0.30942
0.150272
0.086572
0.0611941
0.047274
0.036724
0.0283661
0.0239613
0.0225512
0.022146
0.0218563
0.021398
0.021425
0.0293072
0.0280027
0.0273471
0.0274394
0.0293554
0.0376488
0.154995
6.82412
0.752966
0.293048
0.167688
0.126482
0.103149
0.0822594
0.0549307
0.0303126
0.0233149
0.0222313
0.0218525
0.0214023
0.021078
0.0292827
0.0279752
0.0272214
0.0268805
0.0276034
0.0347021
0.348111
17.2613
2.19366
0.395373
0.208931
0.175933
0.136449
0.104446
0.0693069
0.0344201
0.0238557
0.0223656
0.0219366
0.0214557
0.021273
0.0292693
0.0279672
0.0271254
0.0264635
0.026626
0.0346481
0.607287
1.04625
1.86411
0.298177
0.237693
0.192931
0.138949
0.0970792
0.0574235
0.029826
0.0233401
0.0223212
0.0219629
0.0214778
0.0213692
0.0292613
0.0279725
0.0270615
0.0262749
0.026114
0.033845
0.140452
2.41821
3.0395
2.17051
1.41247
0.846197
0.322365
0.194293
0.166274
0.138178
0.108693
0.0772339
0.0442901
0.0266425
0.0230046
0.0223111
0.0220079
0.0216736
0.0216025
0.0292622
0.0279652
0.0270115
0.0261958
0.0259525
0.0369483
0.0833072
0.108115
0.193638
0.27185
0.24483
0.167849
0.105058
0.0821278
0.0733322
0.0632017
0.0516039
0.0398162
0.0305716
0.0262879
0.0245975
0.0235412
0.0228739
0.022659
0.0226918
0.0292743
0.027934
0.0269754
0.0261309
0.0259517
0.0432468
0.0930794
0.0833566
0.074853
0.0792464
0.0816927
0.0686831
0.0557762
0.0504946
0.0476528
0.043122
0.0378705
0.034134
0.0320072
0.0307046
0.0290705
0.0271245
0.0251245
0.0243079
0.0243918
0.029289
0.0278882
0.0269703
0.0260531
0.026059
0.0511306
0.110171
0.086809
0.0587069
0.0470405
0.0446544
0.0442481
0.0451455
0.0457496
0.0440771
0.0396843
0.034812
0.0322181
0.0318533
0.0319918
0.0303591
0.0282354
0.0258493
0.0275772
0.0291276
0.0292981
0.0278549
0.0269933
0.0259537
0.0262705
0.0597778
0.133475
0.0995547
0.0593585
0.0385714
0.0335263
0.035245
0.0394747
0.0433626
0.0425336
0.0375875
0.0328481
0.0303554
0.0298138
0.0302738
0.030426
0.0303279
0.0363308
0.0715991
0.0786484
0.029297
0.0278556
0.0269762
0.0258777
0.0264447
0.0640857
0.156579
0.122033
0.0677523
0.0402686
0.0334084
0.0355222
0.0425752
0.0529184
0.0564227
0.0530443
0.0526268
0.0607268
0.0770632
0.100963
0.130138
0.160766
0.245335
0.344171
0.306954
0.0292566
0.0279286
0.0269144
0.0258231
0.0248698
0.0301488
0.050611
0.0979491
0.101399
0.0834353
0.0581399
0.0501903
0.0569713
0.0841359
0.123512
0.165814
0.21023
0.261391
0.321491
0.389503
0.459336
0.521999
0.544526
0.544048
0.51195
0.0292268
0.0279762
0.026545
0.0254755
0.024445
0.0230699
0.0233131
0.026748
0.034346
0.0441016
0.0585557
0.0637564
0.0656479
0.0699534
0.0797054
0.0962769
0.118208
0.147057
0.19386
0.250423
0.307176
0.367751
0.412576
0.458681
0.467662
0.029268
0.0278907
0.0266757
0.0253967
0.0243824
0.0234324
0.0223164
0.0222375
0.0229014
0.0246911
0.0279507
0.0343044
0.045131
0.0541421
0.0633742
0.0739938
0.084861
0.0989621
0.11616
0.137962
0.160289
0.186657
0.218658
0.269573
0.307735
0.0292736
0.0278949
0.0266426
0.0254505
0.0243927
0.0233345
0.0225739
0.0218451
0.0211875
0.021311
0.0219273
0.0231648
0.0253331
0.0289196
0.0365471
0.0471415
0.0597097
0.0753157
0.090829
0.10885
0.124451
0.142784
0.155108
0.176062
0.189969
0.0292733
0.0278973
0.0266401
0.0254472
0.0243985
0.0233842
0.0224907
0.021855
0.0213077
0.0206771
0.0206862
0.0209484
0.0214404
0.0223328
0.02416
0.0274003
0.035065
0.0486093
0.0653954
0.0850718
0.102328
0.122082
0.132106
0.144937
0.147468
0.0292552
0.0279515
0.0269103
0.0261618
0.0258378
0.0256096
0.0250642
0.0250194
0.0256312
0.0275041
0.0318534
0.0403353
0.0546062
0.0757658
0.10379
0.137801
0.177874
0.224745
0.276796
0.326812
0.371112
0.408306
0.437133
0.45919
0.452257
0.0292688
0.0279757
0.0271817
0.0264241
0.026187
0.0261479
0.0276196
0.0314402
0.0381906
0.0479973
0.0687023
0.110265
0.175516
0.263997
0.36838
0.477527
0.583455
0.680085
0.763426
0.82821
0.875764
0.915525
0.911753
0.92025
0.79311
0.029284
0.0280124
0.027218
0.0266038
0.0262288
0.0271376
0.0406238
0.0512799
0.048694
0.0482806
0.0676391
0.113405
0.186867
0.281024
0.389983
0.504968
0.614264
0.70793
0.776093
0.824045
0.859446
0.88053
0.754858
0.527944
0.483668
0.0292985
0.0280385
0.02727
0.0267187
0.0265381
0.0283552
0.0401695
0.0454441
0.0410108
0.0379242
0.0382977
0.0420637
0.0459092
0.0490902
0.0557727
0.0659061
0.076763
0.0865207
0.0945013
0.101398
0.10757
0.111737
0.0901841
0.0857694
0.0978487
0.0293071
0.0280459
0.0273094
0.0268483
0.0269754
0.0293315
0.04107
0.057484
0.0988369
0.136644
0.118296
0.090271
0.0682781
0.0515942
0.0418965
0.0363796
0.0320131
0.0284396
0.0260509
0.0248381
0.0242837
0.0239796
0.0239672
0.0263194
0.028504
0.0293058
0.0280256
0.0273238
0.027004
0.0275183
0.0304268
0.0504449
0.529589
2.48076
1.55931
0.777383
0.36715
0.177633
0.0985158
0.0651921
0.0499317
0.0398562
0.0320003
0.0265702
0.0239718
0.0230361
0.022614
0.0225166
0.0229032
0.0226585
0.0292932
0.0279888
0.0272673
0.0269023
0.0273749
0.0307268
0.0863715
5.52908
11.7412
5.70772
2.40106
0.987545
0.365149
0.157196
0.105654
0.0841105
0.0672238
0.051631
0.0359868
0.0262333
0.0233669
0.022656
0.0225161
0.0228135
0.0222865
0.0292776
0.0279622
0.0271751
0.026609
0.0268702
0.0317378
0.21813
8.34996
12.774
5.25367
2.24712
0.971674
0.379874
0.17343
0.141552
0.113905
0.0830089
0.0594365
0.0398453
0.0273034
0.0235433
0.022679
0.0225276
0.0228371
0.0223207
0.0292654
0.0279584
0.0270988
0.0263725
0.02637
0.0324395
0.261265
9.70219
7.38722
3.31021
1.54167
0.711916
0.296436
0.177753
0.154719
0.118972
0.0831278
0.0567331
0.0363771
0.026004
0.0233198
0.0226261
0.0225304
0.022873
0.0223757
0.0292586
0.0279638
0.0270397
0.0262273
0.0259889
0.0330145
0.0927785
0.685352
1.31982
0.98462
0.584012
0.300552
0.165748
0.130012
0.113491
0.090851
0.0682587
0.0479995
0.0318567
0.0248788
0.0231214
0.022593
0.0225549
0.0229451
0.0225215
0.0292618
0.0279556
0.0269916
0.0261664
0.0258452
0.0360135
0.07805
0.0861313
0.10677
0.133564
0.121263
0.0939498
0.0731156
0.0656494
0.0597366
0.051107
0.0413558
0.0324721
0.0267142
0.0242822
0.0233317
0.022819
0.0227612
0.023225
0.0229728
0.0292762
0.0279222
0.0269631
0.026115
0.0259078
0.0424242
0.0888718
0.0770522
0.0571074
0.0492509
0.0471977
0.0452844