/*--------------------------------*- C++ -*----------------------------------*\
  =========                 |
  \\      /  F ield         | OpenFOAM: The Open Source CFD Toolbox
   \\    /   O peration     | Website:  https://openfoam.org
    \\  /    A nd           | Version:  6
     \\/     M anipulation  |
\*---------------------------------------------------------------------------*/
FoamFile
{
    version     2.0;
    format      ascii;
    class       volScalarField;
    location    "40";
    object      k;
}
// * * * * * * * * * * * * * * * * * * * * * * * * * * * * * * * * * * * * * //

dimensions      [0 2 -2 0 0 0 0];

internalField   nonuniform List<scalar> 
230684
(
1.42709
1.31508
1.20841
1.13626
1.04713
0.958229
0.895327
0.843083
0.824521
0.816036
0.814083
0.823604
0.844804
0.884035
0.947645
1.04335
1.17914
1.36539
1.59359
1.86219
2.12233
2.37458
2.58397
2.71891
2.80404
1.41986
1.32717
1.20175
1.03749
0.870492
0.813493
0.782625
1.08215
0.952746
0.868667
0.840268
0.957984
1.10301
1.18749
1.31573
1.51965
1.82375
2.20327
2.5905
2.93757
3.09613
3.22657
3.20955
4.95323
4.42901
1.42196
1.32199
1.21595
0.950447
0.807537
1.59603
1.16172
1.57804
1.33402
1.04088
0.917055
0.928998
1.11354
1.15083
1.23625
1.43232
1.82314
2.27269
2.52606
2.571
2.58916
2.58922
3.42452
3.69109
3.25432
1.4067
1.30476
1.10831
0.866496
0.638609
1.69628
1.28676
1.5106
1.35794
1.86589
1.88142
2.5612
1.36008
1.00931
0.691797
0.848091
0.932897
0.96022
0.947042
0.979008
1.0698
1.16593
1.59142
1.97074
1.76024
1.42075
1.32453
1.19929
0.908786
0.705774
0.742534
0.851022
1.04929
0.992349
1.32281
1.78489
2.70963
1.53582
1.04986
0.876182
0.873001
0.999226
0.99364
0.929299
0.943389
1.03913
1.11559
1.59306
1.82543
1.66435
1.42176
1.3232
1.20135
0.861426
0.477162
0.934001
0.600774
0.703691
1.89466
2.55145
2.20943
2.24168
2.01119
0.916703
0.619394
0.621238
0.777138
0.715679
0.6621
0.637734
0.717956
0.867076
1.3835
1.74041
1.55484
1.4222
1.32308
1.20279
0.861805
1.12364
0.886474
0.459768
0.527136
0.521471
0.449472
0.404181
0.674194
0.539572
1.14129
0.753618
1.17598
1.32719
1.34767
1.19792
1.0792
1.03828
1.0646
1.4697
1.73613
1.52634
1.42274
1.32227
1.21119
0.921721
0.669172
0.538933
0.374797
2.51288
1.76394
1.30552
0.940542
0.728009
1.41696
3.47058
4.20771
3.74556
2.74245
1.90213
1.43977
1.224
1.10403
1.03
1.31531
1.54081
1.41034
1.42279
1.32207
1.21524
0.944109
0.727591
0.57432
0.425398
2.99842
2.11227
1.41468
1.04613
0.854022
3.42261
3.59522
4.51754
3.94146
2.62536
1.70943
1.23935
1.02449
0.936911
0.906786
1.21119
1.5748
1.39253
1.42274
1.32207
1.21671
0.950972
0.739451
0.596476
0.490285
0.778994
2.32026
1.33031
1.1614
1.00365
2.39088
1.47946
1.28161
2.66417
2.76777
2.0142
1.53374
1.31115
1.20939
1.17858
1.55469
1.87627
1.65784
1.42263
1.32249
1.21776
0.948996
0.688078
0.559147
0.373931
1.28041
1.04973
0.859169
0.85042
1.0732
1.07241
1.28665
1.13411
1.11646
1.3672
1.6287
1.67479
1.64204
1.56674
1.46667
1.7209
1.94183
1.74042
1.42282
1.32251
1.21986
0.963803
0.758769
0.605936
0.607084
0.640735
1.08303
0.808673
0.749043
0.557123
0.343982
0.401394
0.375376
0.457373
0.518173
0.563245
0.854883
0.937204
1.20391
1.12986
1.46064
1.59611
1.4588
1.42294
1.32242
1.22148
0.973212
0.781086
0.663031
0.59291
0.981336
0.831448
0.731593
0.758651
0.687865
1.07076
1.33324
0.66966
0.84873
0.149474
0.914766
2.47971
0.992398
0.63906
0.825981
1.13712
1.02536
1.06256
1.42296
1.32233
1.2223
0.976809
0.790938
0.67695
0.618466
0.879922
1.0932
1.23788
1.32705
1.44047
1.93245
1.27445
1.46674
0.376302
0.671218
1.07617
1.45685
2.05349
1.83421
0.986586
0.845417
0.647521
0.911348
1.4227
1.32243
1.22247
0.977871
0.790879
0.673217
0.657157
1.0752
1.41609
1.54013
1.51757
4.00101
2.02837
1.18944
0.937237
1.18094
1.11877
0.977049
0.967666
1.31189
1.44448
1.43349
1.29111
1.29993
1.41737
1.41491
1.33669
1.19603
1.03484
0.911208
0.819471
0.738477
0.736227
0.918342
1.37997
1.40086
3.09066
1.89305
1.31357
1.62505
1.45927
1.04416
1.38653
0.960885
1.2735
1.08107
0.900033
0.713348
1.62545
1.54169
1.42913
1.31112
1.20657
1.12913
1.04523
0.99662
0.905343
0.798878
0.842638
0.769577
0.773803
0.854912
2.11749
1.3941
0.955494
0.82177
0.828571
1.71039
2.0658
1.4514
0.895214
0.742805
0.986868
2.98633
2.62899
1.43399
1.30253
1.21633
1.11392
1.06501
0.953036
0.836406
0.770195
0.986972
1.09031
0.94484
0.850434
0.958352
1.06175
1.20697
0.918775
1.02474
1.0466
6.62751
4.24029
1.91891
5.19993
4.57548
4.27813
3.68199
1.42902
1.31192
1.20563
1.13032
1.04607
0.998948
0.866209
0.930384
0.918678
0.885859
0.82964
1.31493
1.59388
1.69834
1.55781
1.4493
1.33309
1.18251
5.64381
4.87688
3.23481
3.789
3.54697
3.3851
3.15235
1.43014
1.30987
1.20857
1.12616
1.05478
0.991918
0.943391
0.892008
0.864977
0.81701
0.801957
0.777446
0.736592
0.73759
0.749234
0.783509
0.781451
0.846014
1.31647
1.38863
1.57028
1.64378
1.70525
1.75322
1.78798
1.4748
1.42734
1.36619
1.34054
1.33001
1.30109
1.24185
1.25592
1.19631
1.14554
1.1509
1.19052
1.2856
1.45753
1.68423
2.00645
2.43039
3.01738
3.6588
4.40065
4.93168
5.44915
5.75149
5.75973
5.73413
1.47467
1.4284
1.37326
1.31439
1.62203
1.39201
1.00992
1.75893
1.58266
1.63403
2.00017
2.47024
2.69721
2.93979
3.38335
4.05698
4.92618
5.85834
6.6943
7.35738
7.6491
7.90053
7.86312
8.74046
7.96634
1.47483
1.42985
1.37029
1.26849
2.68468
8.11347
7.20599
5.74087
4.49699
3.20437
2.60032
2.92416
3.91391
5.13893
6.44108
7.41719
7.84483
8.00502
8.03674
8.08629
7.61369
6.38772
5.86173
1.46861
1.43181
1.33697
1.34845
1.75489
3.60738
3.53449
3.45982
3.68876
6.42095
3.43307
3.06277
3.03289
2.91863
2.77917
2.7779
2.92738
3.17499
3.04375
2.77157
2.66292
1.47598
1.42896
1.36602
1.2539
1.40326
2.10783
1.67013
2.29427
5.1608
6.02727
5.88406
5.44065
3.73126
2.45231
1.93439
1.67465
1.74625
2.13046
2.63824
2.71988
2.43393
2.18712
1.47626
1.42699
1.38178
1.33869
1.52912
5.97241
7.45639
6.09406
5.76894
5.72105
4.12833
3.09611
2.9264
2.28131
1.79428
1.51509
1.72286
2.2534
2.43772
2.2555
2.08273
1.47605
1.42516
1.38029
1.36867
2.5224
0.647401
2.68929
3.52342
3.51999
3.2598
2.86487
2.55364
2.42787
2.26435
2.35976
2.51478
2.45271
2.2327
2.07265
1.47444
1.42699
1.36737
1.26756
1.40577
1.22206
1.30575
1.62159
6.65236
7.07585
6.6691
6.42881
4.99115
3.39372
2.36022
2.07315
2.17133
2.33192
2.34641
2.16441
1.93897
1.47409
1.42747
1.36362
1.24791
1.14099
1.0352
1.1411
6.23595
6.22042
7.50432
7.35381
5.10459
3.14453
2.13799
1.92087
2.0778
2.21876
2.26379
2.17531
1.98036
1.4741
1.42772
1.3626
1.24649
1.13901
1.03111
1.09383
6.95719
7.25345
8.15236
7.73617
2.87557
5.07922
6.80654
5.34369
4.72886
4.83703
3.91037
2.93996
2.46933
2.40799
2.48207
2.52775
2.44013
2.23475
1.47424
1.42784
1.3636
1.24985
1.47475
1.98624
2.03281
1.42963
1.51921
2.04205
2.17128
2.76065
3.59066
3.71452
3.47145
3.19599
3.05512
2.99021
2.97222
2.71854
2.55015
1.47427
1.42804
1.36429
1.25321
1.17324
1.22988
1.90601
2.0197
0.519638
0.935534
3.94142
4.16203
2.69978
2.33669
2.28518
2.09078
1.86683
1.75027
1.47432
1.42796
1.36437
1.25512
1.16614
1.13545
1.81208
4.35995
1.61989
3.3079
4.5413
2.5475
1.17449
2.26734
3.68282
0.306316
1.03491
2.17851
1.78148
1.55687
1.37309
1.47418
1.42795
1.36404
1.25651
1.16837
1.14205
2.1516
3.25821
3.2304
2.77438
2.45403
2.88746
2.23347
1.86768
2.68284
1.91221
2.41393
2.36061
6.39378
3.02089
1.70621
1.57244
1.40819
1.47427
1.42742
1.36393
1.25667
1.16964
1.18366
2.36866
3.67715
3.73525
3.36293
3.35637
12.1183
6.34074
3.96528
3.34638
2.65636
2.40542
2.40761
2.63914
2.85791
2.33077
3.56151
2.18797
2.03095
1.47304
1.42853
1.36403
1.27892
1.20126
1.11724
1.19691
1.61317
2.52269
2.93394
3.29735
8.0032
2.90968
5.5757
2.74735
2.46036
2.12658
4.03635
3.46569
1.47721
1.42207
1.36556
1.30406
1.24909
1.1906
1.11799
1.08296
1.26631
1.39568
1.99746
4.05489
0.647237
1.45411
5.6403
6.38716
6.39923
4.91395
4.46269
5.07509
6.33136
5.56492
1.4779
1.42199
1.36381
1.30646
1.24422
1.18638
1.11201
2.42777
2.03656
1.74799
1.45041
1.70943
3.70926
4.61808
2.84514
2.6971
3.93084
9.18954
10.8029
10.1937
9.05425
8.03702
7.26955
1.47812
1.42124
1.36537
1.3037
1.25032
1.19044
1.20515
2.48811
1.5561
1.18859
1.10907
2.1303
3.66775
2.57674
2.55143
2.57325
5.14525
10.4927
10.7737
6.66791
6.1676
5.85137
5.40275
1.47808
1.42161
1.36423
1.30631
1.24845
1.19618
1.14576
1.10977
1.05773
1.03024
0.999447
0.948645
0.942113
0.976885
1.0571
1.05946
1.27603
1.78221
3.71309
3.21895
3.27938
3.27683
3.33522
3.35648
3.20497
1.47967
1.44628
1.41213
1.42287
1.43436
1.45245
1.43438
1.46437
1.4269
1.41195
1.43291
1.49275
1.59605
1.75844
2.00433
2.36163
2.85358
3.52079
4.42178
5.55732
6.31509
6.92322
7.21737
7.29867
7.23811
1.48017
1.44845
1.41564
1.42978
1.72581
1.79906
1.75576
1.90407
1.97477
2.12251
2.39375
2.80882
3.27262
3.81812
4.56627
5.52915
6.63631
7.72627
8.67501
9.42959
9.89642
10.1407
10.1628
10.5571
9.64757
1.48199
1.44827
1.42199
1.43263
2.88735
5.15551
3.92358
3.24771
3.11738
3.04375
2.91939
2.83469
3.06674
3.97983
5.26229
6.63723
7.94233
8.91741
9.49353
9.79118
9.95883
10.0832
9.2056
7.34177
6.91949
1.48235
1.44925
1.42724
1.41069
1.89448
4.74825
3.4514
3.05086
2.98087
2.87791
2.86752
4.49767
3.93521
3.2779
3.03388
2.97275
3.11412
3.13953
3.10228
3.09595
3.10818
3.22061
2.96628
2.6608
2.75516
1.48413
1.44535
1.43358
1.45433
1.95525
3.25693
3.57247
4.60899
7.36316
6.78707
5.6197
7.84877
6.28566
4.89291
3.57631
2.68409
2.14009
1.84535
1.64636
1.57384
1.67509
1.92124
2.04594
1.88746
1.88413
1.48374
1.44688
1.45589
1.61749
4.09969
9.22218
11.8163
10.6239
8.24152
6.64956
4.51007
3.4368
2.73065
2.24346
1.91287
1.66787
1.54235
1.62202
1.8391
1.94581
1.80738
1.76733
1.48389
1.44173
1.44985
1.66216
9.283
3.00793
4.06278
4.07496
3.69357
3.22521
2.93918
2.58506
2.10538
1.85364
1.85974
1.96017
1.95439
1.82391
1.77593
1.48187
1.44349
1.42662
1.45092
1.82439
1.9551
2.05786
2.34057
5.23094
6.98529
6.85208
5.7209
4.30622
2.96876
2.02944
1.72663
1.83275
2.01445
2.0202
1.88795
1.79661
1.48088
1.44435
1.41632
1.38708
1.3733
1.43004
3.17039
2.23041
5.74067
7.47127
6.50957
5.70341
4.30714
2.76756
1.86204
1.6501
1.81368
2.03299
2.04045
1.88048
1.81551
1.48075
1.44444
1.41364
1.37612
1.34437
1.3729
2.34892
10.4156
9.30407
11.4683
8.10932
3.9443
4.37764
3.29985
3.19211
3.51582
3.53692
2.89307
2.13002
1.84248
1.90607
2.03578
2.04495
1.94188
1.90248
1.48079
1.44431
1.41282
1.37678
1.39296
1.56924
4.64884
3.57043
2.63298
2.38687
2.22956
2.05648
2.03886
1.98353
2.24647
2.61785
2.95972
2.91812
2.56087
2.29645
2.22563
2.28702
2.29488
2.18774
2.17198
1.48087
1.44391
1.4123
1.37413
1.36571
1.55214
2.85435
3.4293
3.58283
2.04404
1.45209
1.43092
1.25827
1.20041
1.18177
1.19394
1.53683
2.70683
2.7485
2.69129
2.40357
2.06815
1.98105
1.8813
1.89937
1.48081
1.44329
1.41163
1.37023
1.33963
1.59579
2.75735
3.30343
3.22871
3.82208
2.52669
3.11322
3.45615
3.13361
2.91908
2.34295
1.43547
2.17832
5.86388
3.14231
2.46472
1.8209
1.59607
1.5752
1.51483
1.48072
1.44276
1.41134
1.3685
1.33416
1.64987
3.15447
3.55188
2.84992
2.45623
2.40901
2.37777
2.83726
2.88087
2.81857
2.76137
2.50921
2.10641
2.30367
2.49382
2.1456
1.7888
1.67701
1.69659
1.64391
1.48076
1.44235
1.4108
1.36745
1.33196
1.72556
3.29388
3.83462
3.00883
2.42537
2.45571
6.53736
8.07526
6.56471
4.82159
3.43393
2.60723
2.30443
2.18708
2.51919
2.45617
2.18743
2.41082
3.26636
2.96794
1.48005
1.44339
1.40985
1.36649
1.31241
1.3385
1.57706
2.34999
2.91376
2.88808
2.91283
5.85613
9.71095
7.74182
6.34277
5.266
3.90514
3.67172
3.38748
3.48644
3.79717
4.0908
4.57751
5.76367
5.38358
1.48093
1.44234
1.40313
1.35742
1.32664
1.26942
1.23647
1.2922
1.5107
1.69381
2.18582
4.09142
7.56635
10.5645
8.84429
7.08486
5.27362
5.12683
6.1181
6.60885
6.71664
7.36396
7.35083
7.29843
6.93575
1.4815
1.44163
1.40337
1.3586
1.32247
1.2778
1.27168
1.94648
2.05581
1.8567
1.81816
2.1589
3.04888
3.67229
3.72029
3.84221
4.12042
4.56521
9.90528
9.19416
8.69916
7.16576
7.1672
7.28477
7.08974
1.48224
1.44048
1.40427
1.35804
1.3242
1.27481
1.3058
2.93621
1.62534
1.37563
1.37256
1.47396
1.98428
2.50432
2.33755
2.45786
2.72408
3.60104
6.59252
5.8468
5.16391
5.21662
5.00117
5.05494
5.04919
1.48201
1.4412
1.40262
1.3608
1.32082
1.28044
1.24655
1.21694
1.18785
1.16953
1.13644
1.12995
1.12663
1.14465
1.17574
1.21948
1.35873
2.18124
3.59706
4.29349
4.08167
4.04081
4.05948
3.96936
3.94098
1.48002
1.44793
1.42066
1.42793
1.46174
1.48958
1.48812
1.48185
1.48058
1.49677
1.54878
1.64869
1.80468
2.03224
2.35121
2.78086
3.34322
4.09393
5.13784
6.38134
7.19189
7.74308
8.20096
8.18191
8.15545
1.48066
1.44993
1.42536
1.43549
1.54745
1.70154
1.76947
1.88999
2.0304
2.19279
2.4842
2.98067
3.63251
4.41706
5.37492
6.4933
7.69247
8.83188
9.82015
10.6162
11.1429
11.3878
11.4009
11.4696
10.58
1.48249
1.45012
1.42989
1.43931
1.68652
2.46833
2.68869
2.73618
2.68649
2.4956
2.60157
2.99697
3.63509
4.58252
5.78429
7.14474
8.45926
9.4711
10.1174
10.4906
10.7267
10.8855
9.85706
7.70418
7.40019
1.48366
1.45082
1.43541
1.44021
1.58711
2.26703
2.58443
2.66713
2.63088
2.58164
2.56685
2.68946
2.72555
2.69793
2.70343
2.77704
2.93391
3.00881
3.0213
3.01328
3.01607
3.04179
2.70401
2.47772
2.64233
1.48459
1.44781
1.44426
1.47582
1.80192
2.58355
2.82228
3.58706
6.30638
6.64496
5.46961
4.63335
4.14447
3.43456
2.85432
2.35648
1.99058
1.72246
1.54156
1.46261
1.46682
1.51752
1.53144
1.51625
1.5659
1.485
1.44813
1.45606
1.58033
3.0339
4.41796
4.29383
11.4207
11.306
9.18415
10.5614
8.92979
5.65721
3.63606
3.0097
2.56518
2.13781
1.79562
1.55237
1.44149
1.43474
1.47801
1.49058
1.44738
1.44756
1.48437
1.44436
1.45057
1.57703
3.19068
3.97815
3.70323
7.25002
3.12279
3.86872
3.43248
3.03124
2.72283
2.28473
1.79852
1.56335
1.49688
1.50574
1.49861
1.45657
1.45192
1.48233
1.44624
1.43484
1.46168
1.64778
1.99621
3.50061
3.88264
4.35046
5.72343
4.79827
3.70401
3.03696
2.35913
1.79969
1.58737
1.52133
1.54339
1.53934
1.48873
1.48242
1.48143
1.44663
1.42514
1.41241
1.42561
1.62667
5.36593
2.28608
5.59275
5.52204
4.4211
3.93603
3.22395
2.28958
1.68467
1.50966
1.50796
1.55625
1.55111
1.49384
1.49058
1.48128
1.44648
1.42228
1.40058
1.39519
1.56665
3.24639
12.2588
12.1708
12.0507
8.24463
3.82349
3.75201
2.92872
3.18272
3.16815
2.93179
2.29735
1.74116
1.53413
1.5133
1.54268
1.54316
1.51922
1.52085
1.48134
1.44609
1.42111
1.39795
1.40108
1.65592
3.04574
5.28786
5.93195
6.14854
5.43654
4.08627
2.87629
2.59174
2.66772
2.68687
2.58527
2.32331
1.98998
1.78302
1.69692
1.67946
1.67456
1.65368
1.66463
1.48137
1.44546
1.42042
1.39465
1.39621
1.79148
3.07006
3.78886
4.47318
4.53367
4.65018
3.68334
2.69042
2.39587
2.31743
2.3918
2.617
2.67366
2.50535
2.34947
2.10706
1.89489
1.78941
1.67565
1.66265
1.48123
1.4448
1.41988
1.39057
1.38363
1.88855
3.21713
3.15694
2.84285
2.63604
2.69119
2.55694
2.55402
2.52469
2.39825
2.25056
2.15885
2.01311
2.22006
2.35467
2.03555
1.8067
1.67888
1.59695
1.56763
1.48106
1.44437
1.41975
1.38787
1.38384
1.9784
3.54527
3.30379
2.4732
2.13493
2.14787
2.37033
2.73257
2.76603
2.66219
2.41193
2.12944
1.92447
1.892
2.14919
2.10635
1.91626
1.77781
1.98158
1.98117
1.48114
1.44397
1.41914
1.38578
1.38603
2.04019
3.69051
3.62327
2.59698
2.0084
1.95905
2.50524
4.64822
4.8072
3.97862
3.01113
2.40888
2.18342
2.13817
2.42922
2.68076
2.7928
3.38187
4.50718
4.14202
1.48064
1.44493
1.41758
1.38395
1.34783
1.43358
1.76731
2.72606
2.97249
2.74123
2.4945
2.77133
3.93307
4.45222
4.48164
4.36985
4.22849
4.39461
4.67688
5.08585
5.66839
6.23965
7.32057
7.151
6.98814
1.48053
1.44529
1.40824
1.37262
1.34488
1.29528
1.29903
1.38144
1.54213
1.73082
2.07638
2.56812
3.01597
3.10875
3.42777
3.75398
3.76206
4.20972
5.01573
5.93427
6.53898
7.11301
7.56959
7.75296
7.8018
1.48114
1.44404
1.41049
1.37081
1.34437
1.30062
1.30782
1.41464
1.45334
1.47129
1.54318
1.74903
2.11858
2.44708
2.70104
3.02441
3.17741
3.57438
4.49738
5.04207
5.49354
5.83446
6.32914
6.98134
7.03768
1.48188
1.44297
1.4111
1.37139
1.34397
1.30172
1.29161
1.32589
1.28731
1.28613
1.28721
1.3209
1.39772
1.60702
1.85173
2.181
2.42033
3.05147
4.05166
4.35702
4.53218
4.82846
4.93445
5.24236
5.24563
1.48168
1.4436
1.40963
1.37382
1.34076
1.30762
1.2785
1.25592
1.23758
1.21702
1.20564
1.21216
1.22681
1.25867
1.30175
1.37717
1.5267
2.08142
2.7056
3.37698
3.85666
3.98187
4.08404
4.29804
4.31328
1.47986
1.44847
1.41883
1.42071
1.43313
1.45123
1.45546
1.45829
1.47125
1.50689
1.58469
1.72102
1.92812
2.22079
2.60903
3.1024
3.72627
4.53561
5.69125
6.97949
7.68537
8.14812
8.61112
8.69484
8.70347
1.48102
1.44866
1.42685
1.42594
1.46774
1.53764
1.62868
1.78539
1.94547
2.13225
2.48392
3.08649
3.89002
4.85524
5.94918
7.1384
8.35424
9.49014
10.4773
11.2819
11.8113
12.0051
12.0412
11.969
11.075
1.48254
1.44915
1.43075
1.43066
1.50263
1.7752
2.21693
2.43363
2.35027
2.26664
2.55568
3.16329
3.97228
4.95122
6.11272
7.42884
8.69999
9.70526
10.3729
10.7726
11.0316
11.1965
10.1051
7.84472
7.62549
1.48338
1.45047
1.43413
1.43643
1.49916
1.78995
2.22533
2.39202
2.31772
2.2839
2.28661
2.27883
2.28472
2.31125
2.39228
2.53758
2.71008
2.82675
2.88962
2.91627
2.92875
2.9594
2.57283
2.3506
2.62475
1.48508
1.44825
1.43909
1.45656
1.60613
2.00694
2.46788
3.27836
5.32268
5.72535
4.68046
3.58411
2.95025
2.58666
2.29465
2.02859
1.79563
1.59937
1.46123
1.39379
1.37726
1.38037
1.37255
1.384
1.42928
1.48498
1.44644
1.44726
1.49794
1.88368
2.65144
3.43126
14.8868
18.8435
12.0327
11.6392
7.49414
3.9688
2.88336
2.62872
2.29606
1.94866
1.6645
1.46469
1.36976
1.33922
1.33802
1.33102
1.30996
1.30808
1.48417
1.44554
1.44313
1.49015
1.79203
2.32351
3.87221
11.4811
2.68118
2.75935
2.66846
2.4731
2.25282
1.95998
1.66105
1.48401
1.3746
1.34697
1.33357
1.30989
1.30404
1.48206
1.44696
1.43119
1.44189
1.52306
1.88003
5.39462
5.42723
3.41839
4.59358
3.44036
2.85785
2.32426
1.91801
1.6419
1.54317
1.40104
1.36029
1.34412
1.32059
1.31624
1.48152
1.4466
1.42535
1.41421
1.43306
1.73062
7.33844
2.29311
5.93177
4.30695
3.59322
3.3184
2.61987
1.97154
1.58037
1.45928
1.38174
1.36107
1.34743
1.32408
1.32187
1.4814
1.4463
1.42284
1.40433
1.40807
1.68052
3.6694
12.8763
12.8859
10.8005
7.01329
3.27067
2.66126
2.53327
3.00621
2.89221
2.48911
1.97776
1.61424
1.43561
1.36938
1.35598
1.34755
1.33594
1.33636
1.4815
1.44577
1.42176
1.40054
1.40408
1.76091
3.03509
3.92055
4.67936
5.05914
4.59229
3.56777
2.77531
2.67743
2.59959
2.37626
2.09765
1.83431
1.62274
1.50461
1.44369
1.41138
1.39877
1.39063
1.39634
1.48142
1.44514
1.42134
1.39721
1.40166
1.91716
3.16545
3.25204
3.22753
3.15887
2.92605
2.57899
2.40089
2.29014
2.20697
2.13477
2.05406
1.93769
1.82555
1.75688
1.65958
1.56261
1.49295
1.44065
1.43671
1.48116
1.44465
1.42115
1.39367
1.39825
2.04621
3.37272
3.04048
2.49839
2.2401
2.18033
2.1824
2.26654
2.22907
2.11912
2.00748
1.8987
1.79428
1.81287
1.90006
1.77338
1.61916
1.50998
1.48916
1.50181
1.48086
1.44449
1.42127
1.39074
1.40504
2.16492
3.67012
3.20534
2.32181
1.88711
1.83478
1.95811
2.17935
2.26693
2.1991
1.99594
1.80182
1.68103
1.66956
1.77065
1.76246
1.66837
1.69658
2.17734
2.23417
1.48103
1.44406
1.42057
1.38831
1.41111
2.21808
3.87087
3.55597
2.48578
1.86827
1.758
1.96036
2.61584
2.99499
2.82743
2.44225
2.21032
2.18623
2.32527
2.64857
3.04265
3.38097
4.3178
5.63878
5.19494
1.48081
1.44477
1.41846
1.38593
1.36147
1.4766
1.86217
2.88612
3.03865
2.68633
2.31211
2.32311
2.77036
3.45806
3.95491
4.266
4.57062
5.0195
5.60167
6.31028
7.08043
7.79306
8.47636
8.44072
8.23334
1.48043
1.44568
1.40752
1.37777
1.3464
1.30509
1.31571
1.40525
1.57071
1.7854
2.13828
2.36449
2.58161
2.76949
2.98038
3.30781
3.65085
4.0668
4.77762
5.62572
6.40277
7.27011
7.78266
8.3565
8.45884
1.48086
1.44446
1.41093
1.37365
1.34849
1.31051
1.29297
1.29935
1.31992
1.36637
1.45556
1.68149
1.98561
2.27081
2.53794
2.8171
3.08275
3.37679
3.78408
4.28624
4.78816
5.36109
5.92061
6.75038
7.10743
1.48145
1.4437
1.41106
1.37558
1.34598
1.31358
1.29163
1.27286
1.25718
1.26045
1.27805
1.31947
1.3866
1.50447
1.77893
2.11754
2.47592
2.87695
3.36723
3.8258
4.16633
4.57602
4.82418
5.25485
5.41151
1.4814
1.44396
1.4103
1.37664
1.34541
1.31506
1.28839
1.269
1.25133
1.23339
1.23486
1.24929
1.27384
1.31813
1.38877
1.51805
1.8067
2.27574
2.77463
3.30142
3.77752
4.15443
4.36222
4.61245
4.63809
1.47999
1.44789
1.41797
1.41111
1.41436
1.42042
1.42131
1.42683
1.44767
1.4979
1.59825
1.76784
2.02166
2.37044
2.81588
3.35973
4.02981
4.84578
6.11976
7.41469
8.10291
8.53674
8.97319
9.0947
9.09143
1.48108
1.4478
1.42703
1.41759
1.431
1.45813
1.53042
1.67788
1.8573
2.08315
2.489
3.17351
4.08848
5.18423
6.37973
7.61203
8.81762
9.92197
10.8922
11.6994
12.1349
12.4624
12.4458
12.2401
11.3953
1.48232
1.44839
1.42914
1.42231
1.43976
1.55801
1.98736
2.24009
2.16149
2.13933
2.5046
3.21688
4.1563
5.22472
6.40876
7.68191
8.86924
9.82094
10.4727
10.8804
11.1457
11.3138
10.1993
7.91888
7.75402
1.48295
1.44953
1.43211
1.42785
1.45137
1.60785
2.01761
2.1757
2.06234
1.99197
1.99752
2.06462
2.09167
2.12966
2.23047
2.39399
2.56459
2.69419
2.78038
2.8514
2.8768
2.903
2.53785
2.35522
2.65214
1.48357
1.44973
1.43374
1.43745
1.49129
1.69934
2.15912
2.8441
3.97874
4.21918
3.53998
2.88752
2.4984
2.2313
2.02992
1.85175
1.68217
1.53479
1.43012
1.37664
1.35633
1.34947
1.34046
1.36894
1.41486
1.48372
1.44855
1.43676
1.45198
1.56103
1.8437
2.73135
14.0854
11.7236
11.0611
6.7197
4.35545
3.08613
2.59578
2.36156
2.07729
1.79913
1.57323
1.41939
1.34621
1.31712
1.30661
1.29854
1.28883
1.2864
1.48273
1.44773
1.43349
1.44648
1.53085
1.78911
3.76865
17.3837
2.52169
2.42165
2.38977
2.18778
1.94622
1.72659
1.54665
1.41987
1.33789
1.31054
1.29932
1.29012
1.2767
1.48176
1.44692
1.42804
1.42643
1.4647
1.74878
5.97952
8.40229
5.79431
2.95702
3.11756
2.91934
2.319
1.83102
1.55901
1.45092
1.35185
1.31468
1.30149
1.29323
1.28095
1.48148
1.44631
1.42419
1.41079
1.42734
1.74436
7.35776
1.57401
4.89683
2.95722
3.59057
3.19267
2.43022
1.84527
1.51791
1.40131
1.33846
1.31281
1.30235
1.2951
1.28466
1.48148
1.44589
1.42216
1.40352
1.40828
1.71532
3.67208
11.7415
10.4336
8.28811
5.49563
2.50778
2.30091
2.80288
3.00019
2.66912
2.19785
1.79172
1.52002
1.38397
1.32901
1.31062
1.30331
1.30001
1.29262
1.48152
1.44532
1.42132
1.39981
1.40211
1.79565
2.96655
3.39641
3.77699
3.95277
3.51026
2.86364
2.54298
2.53045
2.41779
2.15902
1.86445
1.62235
1.46479
1.38705
1.34742
1.32593
1.31916
1.32018
1.31892
1.4814
1.44478
1.42116
1.39681
1.4014
1.95609
3.1157
2.93072
2.56198
2.41355
2.28655
2.18112
2.12869
2.08225
2.00304
1.8726
1.71478
1.58433
1.50208
1.45918
1.4174
1.37806
1.35659
1.35236
1.35766
1.481
1.44452
1.42132
1.39377
1.40379
2.11107
3.40576
2.98258
2.28914
1.94305
1.85331
1.86478
1.93156
1.93047
1.86764
1.76449
1.6455
1.55197
1.51191
1.50646
1.46548
1.4131
1.38457
1.44995
1.48549
1.48055
1.4447
1.42165
1.39077
1.41704
2.25916
3.734
3.19743
2.28936
1.78864
1.67518
1.72836
1.84094
1.91052
1.87013
1.7505
1.62724
1.544
1.51424
1.52793
1.53521
1.52967
1.68932
2.38958
2.49
1.48083
1.44421
1.42079
1.38833
1.42651
2.3202
3.98265
3.57053
2.47793
1.84691
1.69085
1.76454
1.98177
2.20207
2.22582
2.14819
2.1463
2.29346
2.58764
3.00729
3.4958
3.96955
5.14146
6.57694
6.13431
1.48092
1.4446
1.41846
1.38511
1.36677
1.5008
1.92342
2.99255
3.11001
2.71602
2.28559
2.19237
2.41936
2.96183
3.55901
4.13102
4.72819
5.42958
6.2454
7.14729
8.05412
8.86949
9.37805
9.33604
9.21478
1.48064
1.44542
1.40681
1.38001
1.34434
1.30945
1.32657
1.42941
1.60329
1.85613
2.20297
2.37013
2.49489
2.68564
2.92948
3.23498
3.62522
4.22499
4.95877
5.81674
6.61223
7.50656
8.12143
8.75263
8.96302
1.48072
1.44474
1.41034
1.37479
1.34805
1.31513
1.28758
1.28837
1.30811
1.35816
1.45051
1.66406
1.9904
2.26608
2.53931
2.80412
3.09226
3.43718
3.80612
4.23658
4.71381
5.38558
5.94645
6.73928
7.23886
1.48118
1.44413
1.41054
1.37676
1.3458
1.31633
1.29295
1.2705
1.25463
1.26009
1.281
1.32846
1.40552
1.52637
1.81884
2.16738
2.56522
2.9791
3.3881
3.79151
4.15597
4.57982
4.8954
5.29851
5.56194
1.48122
1.44419
1.41008
1.37733
1.34619
1.31653
1.29104
1.27376
1.25199
1.24051
1.24569
1.26351
1.29857
1.34949
1.44189
1.66532
2.01183
2.49106
2.99167
3.48392
3.92718
4.32531
4.58158
4.85721
4.91682
1.48011
1.44726
1.4177
1.40429
1.40169
1.39929
1.39766
1.4069
1.43843
1.50768
1.6349
1.83925
2.13594
2.53061
3.02001
3.59901
4.2956
5.13817
6.4405
7.72653
8.41717
8.8392
9.29515
9.3729
9.37431
1.48096
1.44732
1.42596
1.41058
1.41256
1.42334
1.48672
1.6263
1.84177
2.12111
2.59262
3.34112
4.32994
5.51084
6.77915
8.04116
9.23039
10.3024
11.2457
12.0239
12.4443
12.7781
12.706
12.512
11.6777
1.48204
1.44769
1.42762
1.41584
1.41489
1.48948
1.9045
2.18648
2.14026
2.15779
2.55
3.30119
4.31871
5.47935
6.7239
7.97678
9.08367
9.95822
10.5707
10.9694
11.236
11.4
10.28
8.03045
7.88985
1.48256
1.44858
1.42982
1.41977
1.4247
1.53607
1.9295
2.08103
1.9319
1.8435
1.85995
1.96273
2.04584
2.10945
2.22194
2.38864
2.54823
2.67037
2.75852
2.84653
2.88484
2.92612
2.56857
2.48028
2.73538
1.48276
1.44906
1.43145
1.42569
1.4417
1.5685
1.97951
2.43721
2.84795
2.94255
2.69908
2.46998
2.28207
2.09583
1.93865
1.79843
1.65978
1.5378
1.45244
1.40735
1.38682
1.37665
1.37765
1.43498
1.48526
1.4826
1.44858
1.43183
1.43099
1.46329
1.60573
2.28775
6.23227
9.29674
7.0983
5.16442
3.71286
2.85355
2.48681
2.23861
1.98118
1.74025
1.5474
1.42493
1.36905
1.34515
1.33299
1.33297
1.35206
1.34744
1.48204
1.44751
1.42973
1.42767
1.45783
1.61678
2.96517
19.8648
19.8322
14.8558
9.24219
5.51655
3.24508
2.82651
2.65442
2.31638
1.95955
1.67517
1.48696
1.39883
1.35446
1.33494
1.33325
1.35022
1.33638
1.48156
1.4465
1.42603
1.41744
1.4383
1.65604
4.40198
21.301
22.0535
14.8837
9.11111
5.43967
3.24506
3.12029
3.27848
2.83555
2.21078
1.74794
1.49768
1.4086
1.3597
1.33636
1.33387
1.3513
1.33771
1.48141
1.4459
1.42307
1.40771
1.41893
1.68874
4.6665
20.1949
16.6337
11.1109
7.07246
4.40649
3.11034
3.35944
3.5185
2.93558
2.23981
1.74401
1.48036
1.39106
1.35351
1.3349
1.33418
1.35266
1.34023
1.48146
1.44543
1.42142
1.40211
1.4045
1.70774
3.28411
6.71696
7.55637
6.00608
4.32997
3.00041
2.81826
3.01431
2.94384
2.51629
2.04862
1.68734
1.47035
1.38285
1.34829
1.33366
1.33506
1.35584
1.34539
1.48151
1.4449
1.42079
1.3989
1.39904
1.79135
2.86257
3.03278
3.05058
2.98647
2.68908
2.41786
2.39182
2.3909
2.28227
2.04527
1.77934
1.56526
1.43686
1.37871
1.35108
1.337
1.34079
1.36528
1.35936
1.48133
1.44448
1.42094
1.39619
1.40042
1.95497
3.05297
2.80654
2.29705
2.06713
1.99333
1.96695
1.98916
1.97772
1.91831
1.79311
1.64114
1.5156
1.43717
1.39686
1.37024
1.35239
1.35548
1.38741
1.39309
1.48082
1.44447
1.42136
1.39364
1.40751
2.14577
3.41632
2.98582
2.23445
1.83521
1.73714
1.75076
1.81296
1.82459
1.78521
1.69979
1.59463
1.50362
1.44478
1.41435
1.38978
1.37121
1.38163
1.50595
1.55962
1.48025
1.44493
1.42175
1.39093
1.42619
2.32634
3.79657
3.24128
2.33962
1.80212
1.65931
1.68553
1.75172
1.78819
1.76096
1.68816
1.60116
1.53197
1.495
1.49113
1.50446
1.52838
1.76388
2.64167
2.78698
1.48061
1.44441
1.42086
1.38854
1.44136
2.41225
4.09611
3.62531
2.52723
1.89224
1.70814
1.7296
1.81962
1.93285
2.00898
2.06545
2.19116
2.45216
2.84986
3.35692
3.9272
4.48921
5.82603
7.36748
6.97742
1.48102
1.44439
1.41856
1.38433
1.37192
1.52556
2.00677
3.13658
3.2228
2.79208
2.35008
2.22057
2.36385
2.80959
3.40689
4.09124
4.87209
5.7739
6.7692
7.80791
8.8147
9.70531
10.1833
10.183
9.98901
1.48102
1.44484
1.40673
1.38141
1.34152
1.31326
1.3418
1.46725
1.65945
1.96749
2.32025
2.48001
2.58374
2.75635
2.98527
3.30073
3.75909
4.46204
5.24793
6.11716
6.92893
7.82525
8.47983
9.1601
9.42026
1.48064
1.44496
1.40981
1.37521
1.34826
1.31522
1.28748
1.29084
1.31671
1.37799
1.48297
1.71988
2.06966
2.34548
2.61811
2.88001
3.17907
3.55948
3.92761
4.37822
4.90971
5.57901
6.16739
6.85919
7.41091
1.48104
1.44433
1.41036
1.37697
1.34574
1.3169
1.29362
1.26867
1.2574
1.26548
1.28978
1.34356
1.43266
1.5718
1.88922
2.2619
2.6776
3.11219
3.52404
3.92187
4.3054
4.72482
5.07857
5.44069
5.74012
1.4811
1.44435
1.40992
1.37764
1.34621
1.31658
1.29238
1.27391
1.25263
1.24437
1.25083
1.2689
1.31264
1.37206
1.49106
1.77144
2.16664
2.67656
3.20084
3.71001
4.14644
4.54201
4.80545
5.07334
5.15114
1.48007
1.44713
1.4165
1.4016
1.39289
1.38522
1.38607
1.40683
1.45998
1.55853
1.72036
1.96293
2.29836
2.72778
3.24471
3.84152
4.5403
5.41033
6.62228
7.89552
8.62012
9.04518
9.52223
9.67659
9.57835
1.48087
1.44689
1.42521
1.40743
1.40087
1.40694
1.48098
1.66464
1.96695
2.33711
2.88912
3.69654
4.74125
5.97276
7.28115
8.55753
9.73093
10.771
11.6801
12.4112
12.8261
13.1595
13.1063
12.8738
11.9771
1.48184
1.44706
1.42636
1.41161
1.40055
1.47343
1.94928
2.33479
2.37974
2.46948
2.90237
3.67608
4.73228
5.94954
7.23793
8.465
9.49274
10.2815
10.8339
11.2053
11.4612
11.6104
10.4869
8.25745
8.09793
1.48225
1.4478
1.42801
1.41469
1.409
1.51413
1.95907
2.18515
2.0878
2.03326
2.04555
2.16257
2.26699
2.35479
2.47286
2.62411
2.75451
2.84533
2.91531
2.97963
3.01779
3.04512
2.71559
2.68008
2.92065
1.48233
1.44816
1.42917
1.41771
1.41899
1.52576
1.9445
2.26349
2.433
2.50729
2.53506
2.49783
2.38968
2.23574
2.08301
1.93628
1.79277
1.66922
1.58511
1.53778
1.51154
1.4952
1.50455
1.58452
1.63401
1.48207
1.44779
1.42925
1.42029
1.42962
1.54045
2.06346
3.35361
5.00497
4.79901
3.99206
3.37061
2.95485
2.63546
2.35804
2.08761
1.84146
1.6529
1.54152
1.49079
1.46538
1.44857
1.46123
1.50414
1.48015
1.48165
1.44683
1.42733
1.41827
1.4314
1.56504
2.45252
7.72193
10.5254
8.38304
6.06845
4.2838
3.42061
3.15661
2.83875
2.41443
2.01609
1.72354
1.56093
1.49861
1.46851
1.44964
1.46142
1.50188
1.46696
1.48136
1.44595
1.42444
1.41167
1.42355
1.60797
3.09172
11.6874
12.2621
9.50628
6.77404
4.53378
3.57209
3.55458
3.30166
2.72326
2.14742
1.75729
1.56338
1.50014
1.46986
1.44974
1.46183
1.50223
1.46692
1.48134
1.44538
1.4221
1.4054
1.41128
1.64975
3.24079
9.3896
9.98793
7.63336
5.48418
3.90938
3.54867
3.61438
3.36397
2.74673
2.1502
1.75238
1.5574
1.49348
1.46607
1.44839
1.46179
1.50288
1.46834
1.48145
1.44493
1.42079
1.40084
1.40066
1.69752
2.8527
4.00801
4.62196
4.16903
3.46621
3.04946
3.06527
3.12103
2.89919
2.46374
2.03099
1.7182
1.55196
1.48927
1.46184
1.44679
1.4622
1.50468
1.4715
1.4815
1.44448
1.42041
1.39804
1.39691
1.79633
2.79726
2.84848
2.69462
2.61055
2.48552
2.45724
2.49993
2.47761
2.34532
2.10783
1.85301
1.65474
1.54005
1.48725
1.46099
1.44695
1.46494
1.50964
1.47977
1.48125
1.44423
1.42082
1.39568
1.40027
1.98294
3.08574
2.88355
2.36572
2.10919
2.06923
2.08069
2.13634
2.11961
2.04012
1.90481
1.75235
1.62435
1.5403
1.4949
1.46806
1.45268
1.47293
1.52383