/*--------------------------------*- C++ -*----------------------------------*\
  =========                 |
  \\      /  F ield         | OpenFOAM: The Open Source CFD Toolbox
   \\    /   O peration     | Website:  https://openfoam.org
    \\  /    A nd           | Version:  6
     \\/     M anipulation  |
\*---------------------------------------------------------------------------*/
FoamFile
{
    version     2.0;
    format      ascii;
    class       volScalarField;
    location    "40";
    object      nut;
}
// * * * * * * * * * * * * * * * * * * * * * * * * * * * * * * * * * * * * * //

dimensions      [0 2 -1 0 0 0 0];

internalField   nonuniform List<scalar> 
230684
(
0.940631
0.903413
0.867369
0.842377
0.403798
0.384169
0.371482
0.723667
0.712714
0.705756
0.698501
0.695234
0.695039
0.698395
0.708079
0.726575
0.75738
0.805325
0.868141
0.94824
1.02767
1.10385
1.16649
1.20604
1.23322
0.938103
0.90756
0.43246
0.403126
0.181985
0.167652
0.0767769
0.412343
0.381071
0.365708
0.336681
0.3469
0.392231
0.411511
0.430108
0.45616
0.49392
0.543841
0.59548
0.63971
0.667935
0.686543
0.6719
1.65681
1.59561
0.938161
0.905286
0.434164
0.191762
0.166023
0.157198
0.128297
0.241261
0.210192
0.192098
0.186457
0.176724
0.184892
0.193396
0.206675
0.22168
0.248377
0.281496
0.302719
0.304395
0.305734
0.307952
0.71578
1.45949
1.40784
0.893751
0.459881
0.208616
0.172857
0.151996
0.158868
0.112355
0.237604
0.219986
0.253493
0.255989
0.12152
0.0929754
0.0805363
0.0500415
0.175172
0.187483
0.192846
0.190608
0.189617
0.195567
0.204942
0.477987
1.06804
1.01322
0.938085
0.906093
0.429493
0.184575
0.15617
0.160528
0.176477
0.203631
0.204375
0.204931
0.229864
0.117747
0.0993683
0.0802879
0.0627079
0.17148
0.196387
0.195724
0.189977
0.18154
0.188494
0.194872
0.463619
0.956543
0.97029
0.939042
0.90699
0.432624
0.180123
0.0619277
0.123813
0.097609
0.105454
0.271417
0.305403
0.285645
0.275916
0.235028
0.169188
0.0463972
0.1387
0.169918
0.16305
0.154684
0.149048
0.153433
0.17037
0.438359
0.983906
0.939731
0.939079
0.90677
0.433184
0.179668
0.114976
0.120168
0.0831398
0.0811438
0.0928512
0.0862102
0.0785594
0.0977372
0.0722662
0.223519
0.159587
0.2295
0.240005
0.240646
0.223037
0.206875
0.194778
0.193002
0.454891
1.02125
0.938199
0.938691
0.905551
0.433728
0.188823
0.158847
0.137906
0.113535
0.174248
0.170478
0.145723
0.12641
0.110206
0.116822
0.367958
0.41405
0.401243
0.352733
0.289451
0.246394
0.221169
0.207963
0.197729
0.434132
0.899931
0.909098
0.938293
0.904578
0.433779
0.191129
0.167457
0.148415
0.128261
0.210031
0.185146
0.152635
0.132317
0.116268
0.33798
0.37715
0.428374
0.414864
0.344858
0.277464
0.230507
0.20365
0.189858
0.183645
0.415242
0.95174
0.895473
0.937992
0.904065
0.433604
0.191473
0.167626
0.149804
0.136505
0.0756749
0.276
0.204833
0.170158
0.11383
0.278398
0.212572
0.276942
0.367213
0.358608
0.293743
0.246558
0.225807
0.204862
0.210015
0.486646
1.03232
0.985739
0.937824
0.904124
0.433718
0.19097
0.148596
0.0448525
0.0463689
0.133491
0.111239
0.101054
0.106828
0.106949
0.0848113
0.198914
0.193866
0.193727
0.208239
0.241179
0.246187
0.245489
0.239503
0.233352
0.519192
1.09353
1.00481
0.93783
0.904169
0.434141
0.192705
0.167611
0.144076
0.0707491
0.138717
0.104032
0.111825
0.101487
0.0893302
0.065026
0.0849563
0.0624181
0.0726065
0.0691002
0.11279
0.0993039
0.0923999
0.196067
0.203177
0.445753
0.977812
0.943125
0.937778
0.904172
0.434446
0.193827
0.173374
0.158441
0.145929
0.188176
0.0966932
0.099677
0.0802904
0.0713298
0.159042
0.108911
0.0486739
0.0906444
0.0132748
0.205367
0.15422
0.0957255
0.0665126
0.161297
0.395717
0.368376
0.80603
0.937766
0.903971
0.43463
0.194311
0.174805
0.161819
0.145455
0.165548
0.186373
0.200028
0.208754
0.208303
0.26357
0.19426
0.186458
0.0347875
0.140741
0.197875
0.0773946
0.230115
0.132791
0.0985186
0.0815821
0.145504
0.729933
0.937519
0.903938
0.434549
0.194369
0.175023
0.162691
0.14504
0.179752
0.218588
0.230535
0.229549
0.304632
0.11208
0.0821764
0.149009
0.206201
0.202506
0.187161
0.165099
0.19791
0.203906
0.103089
0.0943095
0.207726
0.891903
0.934788
0.909094
0.429393
0.399662
0.37523
0.354454
0.339971
0.320122
0.336411
0.410197
0.215202
0.106516
0.108029
0.0745803
0.21908
0.171044
0.138823
0.439625
0.16474
0.10534
0.10204
0.0907382
0.152606
0.960619
0.93034
0.939275
0.900121
0.862588
0.834974
0.802694
0.783824
0.373992
0.334033
0.709386
0.326893
0.150163
0.147078
0.118832
0.0847085
0.0717013
0.130761
0.117049
0.240666
0.136677
0.227195
0.0864883
0.156382
0.394057
1.35343
1.25055
0.940979
0.896781
0.866392
0.828758
0.810234
0.382285
0.177582
0.15932
0.381673
0.784502
0.362578
0.158037
0.172407
0.157523
0.182894
0.136199
0.169206
0.180857
0.291667
0.371399
0.125657
1.7418
1.6344
1.57014
1.4583
0.939239
0.900035
0.86247
0.834785
0.802797
0.783627
0.345969
0.164322
0.368272
0.733377
0.345468
0.203339
0.14833
0.467975
0.455836
0.446285
0.430215
0.212317
0.259711
0.418148
0.691194
1.50956
1.43936
1.35651
1.34868
0.93956
0.899237
0.863808
0.832748
0.806716
0.780704
0.762126
0.740494
0.729817
0.713443
0.710268
0.347921
0.334933
0.666007
0.663663
0.672756
0.33292
0.16158
0.211624
0.447132
0.915588
0.940117
0.964447
0.981924
0.993392
5.29708
4.43757
3.7574
3.29569
2.61049
2.22061
2.05193
1.92729
1.9222
1.91697
2.01525
2.28869
2.61371
3.17234
3.80314
4.57901
5.40812
6.50646
7.49657
8.71415
9.18859
9.75317
9.82461
9.2169
8.81067
5.26919
4.50124
3.10154
2.68705
1.8782
0.42069
0.149444
0.404647
0.577475
0.841908
1.526
2.37349
2.91901
3.57089
4.32553
5.41313
6.46412
7.28192
7.79072
8.09092
7.8603
8.0509
7.87113
8.76676
8.07284
5.22381
4.41327
3.10086
1.98995
1.51973
1.5675
1.80154
1.9357
1.83797
1.55534
1.51783
2.3089
3.61219
4.8794
6.1177
6.85276
7.1156
7.18024
7.11278
7.12277
7.17804
6.71459
6.544
5.13113
3.83175
2.89751
1.41927
0.962349
0.709644
1.19122
1.81025
2.52834
0.703691
1.12315
1.82615
2.5982
3.21444
3.49513
3.61847
3.63758
3.75903
3.7536
3.68532
3.57456
5.17572
4.29605
2.91167
1.76013
1.3362
0.681224
0.564563
0.715841
1.80646
2.79051
3.63484
0.803024
1.09082
1.27134
1.76509
2.13912
2.32527
2.47293
2.67103
2.73976
2.71716
2.57503
5.16778
4.27067
2.79942
1.77593
0.471832
1.35847
2.29202
2.79664
1.59758
0.881232
0.834527
0.86763
1.16607
1.31803
1.42839
1.52011
2.12146
2.5994
2.80251
2.7779
2.79575
5.19241
4.31228
2.85108
1.82351
0.616744
0.128182
0.386711
0.981932
1.08709
1.30863
1.52887
1.78114
2.12634
2.31813
2.71486
2.86906
2.88466
2.86345
2.90024
5.22278
4.35447
3.25334
1.94666
1.18461
0.620289
0.489067
0.144982
2.10373
3.53844
3.32832
3.40189
3.11793
2.65381
2.50715
2.83236
2.8592
2.66846
2.80119
2.9356
2.60705
5.25013
4.47627
3.33481
2.06337
1.70022
1.39461
1.09659
3.12155
3.03022
3.198
3.8779
3.58794
2.91613
2.64717
2.76879
2.67869
2.53827
2.62039
2.75196
2.75237
5.26651
4.52827
3.27985
2.10948
1.76676
1.45879
1.16313
2.48179
1.02287
1.5779
1.57596
0.27684
0.987541
1.5967
1.58311
2.66441
3.36965
3.21253
2.84365
2.7184
2.77463
2.74107
2.78433
2.94674
2.85705
5.28116
4.55746
3.30199
2.13106
1.62423
0.304435
0.585097
0.183963
0.395225
0.85375
1.05509
1.62475
2.5443
2.85452
2.83715
2.79691
2.82904
2.65246
2.70248
2.68425
2.76089
5.29824
4.58504
3.36262
2.18387
1.84727
1.03236
0.392746
0.43212
0.0971093
0.106307
0.862236
0.857596
0.649644
0.944644
1.26
1.52517
1.64511
1.85065
5.32097
4.58095
3.48467
2.23448
1.98322
1.8754
2.66936
2.02391
0.258771
0.843359
1.15392
0.262175
0.258632
0.368753
1.1967
0.0410288
0.209462
0.604224
0.898208
1.07079
1.48998
5.32539
4.65237
3.41838
2.27482
2.06189
2.11312
3.99322
4.30298
3.49996
2.34944
1.2323
0.942009
0.232355
0.39791
0.465133
0.17442
0.799798
1.11381
0.977359
0.991988
0.427588
0.802963
1.22125
5.34171
4.60615
3.51625
2.29482
2.10467
2.33559
4.38369
4.87372
4.38882
3.73824
3.34382
2.68413
0.722675
0.857586
1.25369
1.29717
1.37193
1.31291
0.987268
0.731152
0.367512
0.752121
0.791085
1.83534
5.33543
4.55099
3.43935
2.8013
2.54987
2.39849
2.61742
3.4472
4.95935
4.80989
3.78727
0.361465
0.636819
1.58719
0.936316
1.12883
0.446524
3.01303
3.25957
5.33759
4.52444
4.03702
3.63195
3.36769
3.19874
2.55452
2.23733
2.43835
2.74121
3.63516
2.03499
0.149405
0.0842856
1.29383
0.69699
1.44392
1.56486
2.05267
2.87406
4.21738
4.38631
5.33457
4.5242
4.01965
3.64186
3.37239
2.63615
2.11341
0.670306
0.630844
0.843585
0.783433
1.36153
1.42408
0.296478
0.350403
0.36367
0.997874
1.50697
1.71006
3.22959
3.62905
3.53854
4.10857
5.34126
4.51871
4.03706
3.62782
3.36078
3.1331
2.61889
0.293792
0.465867
0.78048
0.687015
0.789533
0.7453
1.27278
1.23097
1.37877
1.21993
1.38561
1.93501
2.16102
2.45124
2.57336
3.01835
5.34059
4.52419
4.03079
3.66008
3.38082
3.15744
2.912
2.73501
2.52833
2.33101
2.16975
1.55184
1.34343
1.55251
1.41751
1.20201
1.2282
1.23593
0.465565
1.11086
2.48445
2.72813
3.1091
3.39055
3.34455
6.67202
6.39178
5.9742
5.75127
5.20237
4.753
4.49437
4.35589
4.26987
4.30239
4.34527
4.46212
4.64167
4.9098
5.28427
5.81276
6.55783
7.69485
9.51881
12.2433
13.464
14.3046
14.2516
13.8276
13.3164
6.67188
6.39512
5.86078
5.62367
3.73605
2.49226
1.92923
2.19027
2.65024
3.31039
3.87969
4.64182
5.41246
6.28754
7.34395
8.50212
9.65309
10.618
11.3272
11.8222
11.9416
11.8274
11.857
11.9175
11.762
6.67154
6.36385
5.83183
5.21694
3.76443
1.35692
1.41587
1.77477
2.21839
2.46728
2.87465
3.67917
4.63408
5.83281
7.0436
8.3313
9.50936
10.1928
10.4923
10.546
10.4673
10.4476
10.0357
8.95297
9.09869
6.66404
6.37364
5.94259
5.08628
3.74678
1.2126
1.12367
1.86977
2.60543
3.31126
4.16412
2.2117
1.99328
2.22655
2.88395
3.62872
4.96017
5.72456
5.72877
5.72362
5.63273
5.51423
5.25786
5.11563
5.16867
6.67061
6.27464
5.72595
4.99019
3.04999
0.959722
0.771493
1.3617
3.20346
3.77904
4.32193
3.42203
2.08299
2.05468
2.17997
2.29121
2.72807
3.7297
4.05388
3.96876
3.80455
3.54862
3.48567
3.52221
3.66056
6.66818
6.25112
5.76136
4.85927
2.33081
2.07324
3.70018
3.88934
3.8977
3.31773
2.59541
2.41617
2.46143
2.80434
3.27903
3.39432
3.5613
3.94449
3.89279
3.77762
3.83018
3.83761
6.68291
6.26179
5.78821
5.15353
1.76604
0.336536
1.16917
1.77962
2.28108
2.80483
3.17873
3.15021
3.12402
3.75505
4.08615
4.00222
3.91378
3.94085
3.94898
6.67993
6.32192
5.90863
5.11497
2.82202
1.60295
1.07618
0.183454
3.0365
2.93851
2.8776
3.07819
2.89863
2.5512
2.65023
3.68809
3.98928
3.78384
3.70185
3.90302
3.69318
6.6778
6.3739
5.9308
5.1547
4.64651
4.1193
4.28037
0.251485
2.89624
2.78157
2.88135
3.2176
3.00886
2.53445
2.67233
3.70978
3.84062
3.6484
3.63968
3.76397
3.80788
6.68247
6.39518
5.93189
5.20033
4.71511
4.28294
4.12269
4.35946
2.45795
2.41103
1.60857
0.843021
1.33947
1.52716
2.77565
3.87174
3.89357
3.50685
3.41825
3.88828
3.93094
3.78306
3.77466
3.9221
3.85009
6.68679
6.40355
5.94789
5.23381
4.80614
2.75601
1.9406
0.161769
0.143487
0.14572
0.163045
0.298951
0.54789
0.880448
1.53532
2.23036
2.8207
2.88695
2.87849
3.03099
3.23157
3.36502
3.50371
3.61945
3.71587
6.69144
6.41451
5.97578
5.28715
4.90523
4.71336
3.54424
0.969192
0.511611
0.148154
0.114992
0.105699
0.0975502
0.0922483
0.0909915
0.0913047
0.16692
1.2502
1.664
1.92774
1.90135
1.86371
2.30566
2.7835
3.09651
6.69584
6.42161
5.99566
5.33656
4.98883
5.52545
6.14103
5.20626
2.30528
1.40892
0.134528
0.276954
0.789722
1.37877
1.52984
0.804889
0.602783
0.78959
1.45818
0.970294
1.0897
1.24965
1.87777
2.58447
2.81307
6.69778
6.43059
6.00691
5.37367
5.06806
5.85816
6.56179
6.92072
5.51829
4.04816
2.25572
1.50892
1.62196
1.77211
2.04713
2.42485
2.43374
2.13035
1.51227
0.892503
1.05032
1.19933
1.75021
2.66416
2.95705
6.70063
6.43051
6.01447
5.39295
5.12055
6.08131
6.66501
7.31623
6.73635
5.57145
4.85854
4.36802
1.48471
2.05907
2.50288
2.53856
2.62823
2.94706
2.88448
2.78309
2.16971
1.89641
2.9488
5.09653
5.03965
6.69562
6.42515
5.98239
5.5773
5.21616
5.13677
5.05095
6.23031
6.87129
6.7699
5.73371
2.34307
1.5395
1.83967
1.97178
2.11733
2.43605
3.21989
3.48898
3.59067
4.03898
4.52128
5.52835
7.31598
7.1632
6.70105
6.43007
6.15642
5.83797
5.65852
5.35909
4.82239
4.74695
4.76528
4.958
6.12424
3.51136
1.40687
1.81639
2.01733
2.17813
2.29822
2.70212
3.21565
3.90316
4.15147
5.4673
6.04294
6.41187
6.97282
6.70448
6.42412
6.15711
5.84092
5.62512
5.03224
4.61415
1.37148
1.33991
1.75299
1.90417
2.81546
3.28655
2.98115
2.60645
2.74495
3.16622
3.06852
2.33159
2.97647
3.6739
4.07949
4.4677
5.04419
5.73518
6.711
6.41453
6.1656
5.82924
5.63962
5.31777
4.86921
0.551542
1.15102
1.96477
1.5035
1.39626
1.82276
2.57413
3.04078
2.8695
3.11312
2.0472
1.84609
2.42466
3.38006
3.71696
3.78
4.06576
4.83091
6.70897
6.42112
6.15344
5.86222
5.60331
5.36056
5.11807
4.8988
4.70199
4.38962
3.966
3.66132
3.44412
3.24184
3.0384
2.92332
2.51942
3.36323
4.2277
4.46671
5.96422
5.75118
5.95153
5.75495
6.18535
6.73661
6.7287
6.63245
6.61794
6.65476
6.61217
6.49076
6.31158
6.20133
6.15038
6.16206
6.18289
6.21723
6.31892
6.55492
6.99373
7.71605
8.93477
11.1261
14.1563
15.5022
16.0614
16.6204
15.7237
15.4861
6.7408
6.72857
6.59375
6.58883
6.58891
5.96363
5.41754
5.37017
5.54078
5.7812
6.38717
7.01294
7.56871
8.31073
9.22363
10.2809
11.3646
12.328
13.1295
13.7561
14.1032
14.0667
13.9202
13.5606
13.6324
6.75002
6.71744
6.60252
6.51389
6.47108
4.65711
4.35264
4.58589
4.73388
4.93784
6.15535
7.00418
7.47206
8.16418
9.0813
10.1887
11.1696
11.7467
12.0388
12.1143
12.0534
12.004
11.4344
9.97984
10.3587
6.75214
6.71863
6.62852
6.50652
6.55177
5.46526
4.89089
5.04139
5.18472
5.49733
6.16619
6.56373
5.8697
5.52392
5.51007
5.93099
6.77988
7.01013
6.88011
6.70455
6.59919
6.37517
6.13213
5.93333
6.0888
6.75644
6.68769
6.63257
6.51389
6.41514
3.52164
2.55792
2.99373
4.48774
4.23473
4.09228
4.8793
4.97726
4.62508
4.3507
4.30484
4.92493
5.72665
5.79977
5.7224
5.68709
5.4107
5.17623
5.18979
5.00625
6.76623
6.68581
6.63859
6.68281
4.88424
2.00614
2.1436
4.83211
2.20824
3.29422
4.06905
3.68347
3.14664
3.67634
4.49081
4.67525
4.80604
4.92027
5.063
5.47424
5.70761
5.55972
5.32831
5.32708
5.11584
6.76331
6.6766
6.63649
6.67588
4.07327
1.8999
1.81959
1.9183
1.07393
2.40271
3.68069
4.08531
3.90959
3.42609
3.37576
4.87701
5.72891
5.59128
5.42327
5.36349
5.1791
6.75157
6.70583
6.62522
6.51519
6.22642
4.08572
4.05636
0.246965
2.49659
2.4702
2.27042
2.06369
2.10501
2.00602
2.24926
4.21662
5.50347
5.30275
5.19005
5.17439
5.01348
6.74741
6.71161
6.60724
6.45053
6.29368
6.42656
6.26533
0.260084
2.78473
2.03952
1.993
2.34635
2.3719
2.0333
2.31257
4.46581
5.41728
5.16797
5.12545
5.19636
5.04019
6.74897
6.70923
6.61213
6.45252
6.2928
6.54269
6.59925
4.74674
2.97695
3.01878
2.23365
0.808418
1.53387
2.31505
4.06688
4.29542
3.75725
3.22031
3.51906
5.11667
5.47496
5.27288
5.23505
5.30392
5.07637
6.75028
6.70652
6.61768
6.46051
6.33584
6.72286
6.35437
3.02709
2.53412
2.6901
2.67344
2.48813
2.59709
4.21062
5.05456
4.84871
4.40454
3.95279
3.8264
3.99295
4.19874
4.46389
4.72287
4.89257
4.85059
6.74983
6.70575
6.62748
6.47142
6.37688
7.04892
7.66403
3.75359
1.84012
1.60511
1.70752
1.66772
2.21589
3.32348
3.58471
3.47891
3.45393
3.49953
3.18266
3.08419
2.99602
3.00955
3.59893
4.21055
4.39344
6.74721
6.70822
6.63566
6.47439
6.388
7.25951
8.10247
7.54957
5.16747
3.43397
2.43463
2.24413
2.74653
3.17859
3.12958
2.99795
3.18212
3.02619
1.95853
1.74899
2.48617
2.8989
3.51977
4.34629
4.52476
6.74407
6.71223
6.64167
6.47644
6.42213
7.23283
8.23387
8.54673
7.29961
6.02224
5.51503
4.68319
4.36661
4.10335
3.99369
4.14969
4.14661
3.80514
3.38037
3.23373
3.3755
3.37345
3.96242
5.11431
5.21167
6.74495
6.71078
6.64176
6.47618
6.46072
7.20175
8.0791
8.72297
7.93876
7.15406
6.76062
6.02668
4.28819
4.0208
3.97271
3.87777
4.32758
5.06647
5.28342
5.72415
5.69198
5.59122
6.65121
8.10115
7.95769
6.74505
6.7137
6.62465
6.51357
6.39716
6.35766
6.07458
7.34584
7.78526
7.62596
7.38188
4.92138
3.62821
3.54515
3.64111
3.80425
4.21678
5.392
6.5851
7.58347
8.34646
9.20588
10.8354
10.3846
10.5216
6.74875
6.70863
6.64282
6.55262
6.46783
6.29648
6.27894
6.37788
6.24082
6.2796
6.60976
6.69617
5.78703
5.21505
4.26399
4.14083
4.88299
4.64519
5.48953
7.08577
7.75642
8.42995
9.61804
9.70854
10.2906
6.74768
6.7097
6.64775
6.54242
6.46737
6.29621
6.17711
5.38475
4.72657
4.34329
4.21995
4.64798
5.59215
5.91045
5.88156
5.98411
6.28525
5.66729
5.5614
6.45207
7.01718
7.00306
7.69696
8.82042
9.21712
6.75159
6.70356
6.65173
6.54887
6.45275
6.32674
6.21147
5.63596
5.35668
4.78044
4.22694
3.82952
3.80594
4.15486
4.69702
5.0242
5.50985
5.78967
5.93309
7.33109
6.81308
7.29624
7.43135
8.01123
8.30357
6.75122
6.70544
6.64529
6.56072
6.44209
6.3494
6.20259
6.10129
6.04519
5.82241
5.5796
5.42874
5.3543
5.33334
5.2734
5.23462
5.31676
7.03401
7.43087
8.51817
9.02576
8.3861
8.65013
9.23468
9.18112
6.74165
6.73835
6.73879
6.79516
6.86274
6.93817
6.98073
6.98965
7.00794
7.05496
7.09896
7.07703
7.02849
7.0543
7.26273
7.71558
8.49362
9.77736
12.2733
15.3843
16.2337
16.4357
17.0272
16.3984
16.5871
6.74416
6.74175
6.72355
6.78129
6.93671
7.09571
7.13705
7.18325
7.29143
7.47982
7.86086
8.16339
8.6475
9.34903
10.2065
11.2118
12.2581
13.2204
14.0761
14.7962
15.2203
14.9113
14.9874
14.5222
14.5932
6.75159
6.73646
6.7408
6.78072
7.00994
7.66486
7.62204
7.39805
7.22269
7.41241
7.96955
8.09673
8.37395
8.9746
9.82043
10.8205
11.7181
12.3015
12.6385
12.7655
12.7568
12.7482
12.0933
10.4684
11.0049
6.75306
6.74142
6.75038
6.79209
6.98876
7.78281
8.01731
7.76764
7.33807
7.10868
7.20322
7.49792
7.69945
7.66539
7.38398
7.39461
7.54477
7.41957
7.18114
7.03025
6.79912
6.68203
6.18022
5.93295
6.54223
6.76021
6.72826
6.76729
6.83388
7.24871
7.33669
6.39629
6.04664
5.26356
4.3397
4.1157
4.47491
5.29203
6.26568
6.58275
6.59561
6.80597
6.92808
6.7957
6.70704
6.68927
6.63459
6.53149
6.32173
6.16043
6.75604
6.73089
6.77842
6.93497
7.55259
5.73491
4.92645
7.51848
2.99821
3.26536
3.42696
2.73914
2.58467
3.69323
5.49056
6.00086
5.80257
5.63834
5.91836
6.45992
6.66352
6.63983
6.54839
6.50357
6.33349
6.75858
6.72298
6.77143
6.92143
7.22093
5.03511
4.82713
2.934
0.943782
1.95583
2.77355
3.14965
3.17434
2.99571
3.28865
5.37804
6.65475
6.66514
6.58052
6.50776
6.353
6.74973
6.73391
6.74479
6.80444
7.0172
7.25054
8.23454
0.301689
1.88462
1.49754
1.71122
2.24814
2.09866
1.90153
2.19929
4.59445
6.56159
6.57815
6.50616
6.4466
6.27481
6.74851
6.73235
6.72585
6.74283
6.80972
7.56408
8.28361
0.256797
2.2421
1.42034
2.35612
2.97296
2.60776
2.18535
2.49899
5.09874
6.55806
6.53454
6.48965
6.45623
6.28715
6.74999
6.72823
6.72049
6.71816
6.75722
7.50438
7.44635
4.91914
3.27155
3.08881
2.0417
0.795236
1.23569
2.46997
4.08054
4.0636
3.44391
3.04399
3.72374
5.90649
6.5538
6.52142
6.49531
6.49781
6.28092
6.75071
6.72451
6.72302
6.70732
6.75712
7.55758
9.12007
8.36319
5.54257
4.48117
3.9662
3.62887
4.17721
6.07984
6.54928
6.0571
5.38591
5.04254
5.22642
5.51776
5.67227
5.88836
6.13932
6.15439
6.08987
6.74816
6.72509
6.72897
6.69794
6.75701
7.68982
9.02677
8.2825
5.473
3.64937
3.15505
3.64461
5.23909
6.1286
5.97329
5.73669
5.44035
5.0382
4.68623
4.59316
4.60031
4.72993
5.29635
5.75558
5.75322
6.74291
6.73068
6.73221
6.68941
6.74376
7.65359
9.0929
8.96052
7.1431
5.70925
4.99999
5.00875
5.60522
5.57739
5.21663
5.23507
5.39447
5.07925
4.79489
4.62111
4.74471
4.78302
5.35193
5.96871
5.93252
6.7378
6.73785
6.73214
6.68637
6.78441
7.52319
9.07357
9.07696
7.91672
7.24772
7.14353
6.95573
6.70212
6.19904
5.9377
5.98545
6.03326
5.7523
5.5196
5.4526
5.60689
5.56067
6.1563
6.62362
6.58621
6.73963
6.73454
6.72916
6.68425
6.82688
7.46599
8.80861
9.22048
8.12542
7.63563
7.60224
7.71556
7.57313
6.46293
5.98555
5.93401
6.5682
7.00355
7.15801
7.48457
7.79404
7.95062
8.69295
9.97452
9.74285
6.74586
6.72666
6.71992
6.67684
6.71723
6.67137
6.4343
7.93346
8.3454
7.83767
7.99691
8.10925
7.61217
6.61919
6.49161
6.64677
7.11804
8.1242
9.09129
10.0803
10.9973
11.8103
12.7085
13.1045
12.9783
6.74829
6.72647
6.70279
6.70361
6.63775
6.60702
6.66733
6.74531
6.59652
6.77254
7.31502
7.66325
7.92736
7.94065
7.84575
7.96194
8.02333
8.01498
8.90899
9.60974
10.3625
11.4422
12.0288
12.9087
13.2961
6.74295
6.7342
6.70844
6.67906
6.66985
6.58781
6.5929
6.57472
6.37324
6.29185
6.21519
6.57154
7.23366
7.65238
8.06266
8.2344
8.64357
8.75802
9.37562
9.38253
9.94433
10.7011
11.247
12.0203
12.4589
6.74629
6.72762
6.71556
6.68592
6.64682
6.62753
6.55396
6.60031
6.42024
6.29779
6.16148
6.01714
6.02388
5.95713
6.8816
7.41784
8.21596
8.62638
9.51897
9.88314
10.2218
10.6637
11.0482
11.4553
11.7464
6.7466
6.72778
6.71198
6.6916
6.64836
6.6179
6.577
6.53918
6.52797
6.47902
6.45204
6.48339
6.57107
6.73906
6.94172
7.30809
8.39216
9.47677
10.2336
10.9068
11.6301
11.8301
11.7721
12.5212
12.2775
6.73966
6.74453
6.72352
6.81314
6.86648
6.94197
7.03248
7.13616
7.2319
7.36153
7.45742
7.44433
7.37745
7.41259
7.65757
8.16232
9.0061
10.198
13.0788
16.136
16.8791
16.9611
17.449
16.9953
17.2094
6.74475
6.73916
6.73602
6.80538
6.89699
7.05333
7.27984
7.58462
7.86109
8.16595
8.44699
8.70583
9.20258
9.92571
10.7897
11.7692
12.7754
13.7174
14.5968
15.406
15.6266
15.6729
15.647
15.0094
15.1611
6.75116
6.73496
6.74401
6.80086
6.91892
7.55774
8.14163
8.30885
8.25557
8.38918
8.41513
8.38499
8.69044
9.30553
10.1227
11.0711
11.9053
12.477
12.8416
13.0108
13.0525
13.0894
12.4116
10.75
11.3593
6.75252
6.73818
6.75621
6.81559
6.95165
7.65434
8.45519
8.59045
8.21026
7.83231
7.79764
7.90049
8.02118
8.0639
7.88175
7.73598
7.59478
7.39059
7.20083
7.1136
6.86287
6.71447
6.41669
5.98024
6.701
6.75441
6.73875
6.75901
6.83423
7.06962
7.82163
8.47153
8.52135
5.73333
4.53372
4.33296
4.77736
5.7026
6.91009
7.66523
7.70798
7.5266
7.31835
7.1235
7.01315
6.97591
6.96566
6.94134
6.81432
6.69565
6.7547
6.73431
6.77953
6.87639
7.27357
7.81974
8.05874
7.83675
1.87738
2.48619
2.30677
2.37488
2.77028
4.03553
5.7978
6.34638
6.16233
6.06567
6.39218
6.80703
6.92349
6.93807
6.94352
6.98655
6.95143
6.75136
6.73622
6.76274
6.8627
7.18484
7.65182
8.24699
3.98546
0.760064
1.80106
3.06516
3.4058
3.30491
3.26162
3.91935
5.98571
6.90954
6.95307
6.95301
6.99911
6.95965
6.74816
6.7353
6.7424
6.81247
6.99481
7.93155
9.24393
0.368099
1.37746
1.99043
4.18669
4.35976
3.5471
2.88894
3.15617
5.50452
6.89456
6.95503
6.94955
7.01541
6.94195
6.7487
6.73156
6.72985
6.76893
6.88639
7.90379
8.02304
0.213118
1.15771
2.63959
4.8815
4.75497
3.82541
3.15672
3.61116
5.92539
6.90796
6.94912
6.95036
7.02845
6.95071
6.75058
6.72643
6.72651
6.74739
6.83517
7.82419
8.64048
5.13093
3.22335
2.84834
1.92441
0.668885
1.47806
3.6391
4.8721
4.64023
3.9998
3.74089
4.69501
6.47026
6.91013
6.92907
6.94641
7.01788
6.96116
6.75076
6.72281
6.73097
6.73212
6.81753
7.85403
9.50746
9.60274
6.63044
5.17269
4.52955
4.39705
5.53984
7.01696
7.1744
6.63783
6.06261
5.94941
6.31646
6.58673
6.64289
6.72128
6.84696
6.92258
6.89937
6.74681
6.7253
6.73842
6.71986
6.81089
7.96281
9.38641
9.27367
7.89194
6.61572
5.75995
6.23379
7.3117
7.72793
7.57767
7.31867
6.98805
6.61832
6.34425
6.24105
6.21979
6.30108
6.59242
6.77146
6.80112
6.73982
6.73393
6.74126
6.71068
6.80597
7.84449
9.47557
9.22282
8.0334
7.22333
6.92271
7.073
7.4378
7.33132
7.12219
7.06093
7.00017
6.72833
6.45862
6.38441
6.36665
6.36496
6.67457
6.86121
6.81831
6.73366
6.7437
6.73859
6.7074
6.87925
7.68415
9.40137
9.24233
7.94672
7.46487
7.53324
7.62808
7.72683
7.57587
7.4004
7.33708
7.25498
7.06812
6.92175
6.94033
6.97161
6.94382
7.06952
7.17759
7.09499
6.73645
6.73889
6.7348
6.70347
6.92552
7.56021
9.11701
9.40229
8.15639
7.62371
7.70192
7.8887
8.30215
8.24707
7.90259
7.82979
7.87798
7.79552
7.81994
8.06181
8.45146
8.82128
9.69742
11.3114
11.0332
6.74652
6.72491
6.72808
6.6866
6.76025
6.72389
6.5788
8.22859
8.58479
7.95718
8.08657
8.6189
9.2467
9.38386
9.22978
9.26265
9.57055
10.1504
10.9193
11.8036
12.7101
13.5635
14.5361
14.4189
14.9274
6.75089
6.72115
6.71013
6.72795
6.65379
6.68916
6.79367
6.87492
6.73581
7.03082
7.45919
7.92984
8.53345
9.27957
9.69026
9.78282
10.0061
10.9247
11.4157
12.1598
12.8101
13.7902
14.3881
15.0317
15.4604
6.7421
6.73542
6.71081
6.69788
6.70783
6.64302
6.68597
6.71802
6.72464
6.72366
6.7747
7.26489
7.90035
8.53603
9.15714
9.56405
10.1411
10.7443
11.2241
11.7088
12.4762
13.985
14.5543
15.1633
15.3252
6.74499
6.72871
6.72107
6.70287
6.68255
6.68305
6.66504
6.65029
6.68642
6.70566
6.73531
6.85666
7.01821
7.25054
8.14668
8.96831
9.9185
10.6054
11.3744
11.886
12.4908
13.2208
13.9055
14.3511
14.6559
6.74539
6.7287
6.71734
6.70937
6.68481
6.67085
6.66987
6.68137
6.62073
6.69813
6.75118
6.85887
7.07844
7.33903
7.74481
9.10929
10.3885
11.4892
12.3175
12.8408
13.5647
13.792
14.3005
14.65
14.7541
6.73952
6.74417
6.72194
6.78403
6.84371
6.88109
7.01443
7.12024
7.26522
7.43811
7.55216
7.54814
7.51933
7.60709
7.90863
8.4597
9.33634
10.5723
13.4872
16.4405
17.1818
17.222
17.7886
17.2186
17.4878
6.74414
6.73893
6.73254
6.77706
6.85761
6.97305
7.20252
7.57109
7.99389
8.43628
8.80539
9.11149
9.61367
10.3533
11.2278
12.1866
13.1424
14.0461
14.909
15.7107
15.9145
16.0511
15.9362
15.3105
15.4748
6.75047
6.7335
6.73925
6.78149
6.8693
7.35772
8.03571
8.39045
8.46644
8.67939
8.65214
8.6487
8.9829
9.61516
10.4337
11.3405
12.0896
12.6071
12.958
13.1419
13.2206
13.2835
12.5998
10.9935
11.5833
6.75186
6.73557
6.74712
6.78993
6.88369
7.48914
8.34134
8.57674
8.19056
8.06512
8.12969
8.24245
8.20514
8.15801
7.96681
7.79146
7.61323
7.41766
7.24699
7.19192
6.96297
6.89652
6.58406
6.45524
6.88214
6.75166
6.73825
6.75278
6.81357
6.93467
7.54883
8.58687
9.29993
7.38566
5.70295
5.54248
6.08249
6.86467
7.66218
8.07352
8.00147
7.74486
7.48374
7.28811
7.17675
7.12801
7.11295
7.12692
7.04137
6.96535
6.7505
6.7386
6.75284
6.8248
7.00293
7.62658
9.3378
6.6008
3.13558
2.90816
3.08781
3.37922
4.12561
5.64964
6.91839
7.07483
6.83864
6.73435
6.87759
7.03689
7.0693
7.07157
7.10198
7.18354
7.2116
6.74835
6.73749
6.74696
6.81886
6.98722
7.65648
9.16161
6.4233
3.0149
3.47995
3.20176
2.77345
2.59551
4.57406
6.00202
5.74132
5.14083
4.89159
5.52961
6.713
7.06601
7.07921
7.10511
7.19218
7.21212
6.74749
6.73454
6.73484
6.79554
6.92904
7.77696
7.9951
4.89056
3.42667
3.79491
3.32475
2.74074
2.49487
5.05251
6.83394
6.35295
5.29918
4.62641
5.06646
6.54032
7.06741
7.08707
7.10815
7.1962
7.21542
6.74899
6.72988
6.72579
6.76271
6.87158
7.91211
7.50143
3.78318
3.37084
3.35651
2.92006
2.45471
2.93716
5.71428
7.20135
6.51907
5.43147
4.82508
5.42184
6.69718
7.07038
7.08808
7.11051
7.19942
7.2248
6.75103
6.72424
6.72489
6.74608
6.83119
7.95028
10.4624
5.92481
3.89363
3.29728
2.88928
2.69579
4.31276
6.28975
6.87239
6.2724
5.53357
5.33838
6.10781
6.9177
7.07617
7.08531
7.11219
7.21056
7.23335
6.75072
6.72125
6.73093
6.73083
6.81587
8.01935
9.44893
9.61089
7.84436
6.00992
5.36687
5.60028
7.04191
7.83673
7.84757
7.3665
6.89004
6.79054
6.9555
7.04533
7.04138
7.05032
7.10837
7.22318
7.23934
6.74574
6.7254
6.73945
6.71801
6.81287
8.1079
9.43897
9.20027
8.31557
7.80846
7.57669
7.68918
8.12956
8.21092
8.16384
7.9174
7.59399
7.30955
7.12661
7.03517
6.9887
6.99474
7.08995
7.23293
7.27974
6.73767
6.73623
6.74244
6.7116
6.83388
7.99314
9.61416
9.28893
8.03861
7.66167
7.74338
7.80724
7.97064
8.00488
7.9352
7.78611
7.58955
7.36912
7.20383
7.12417
7.0737
7.05875
7.18088
7.21823
7.20209
6.73117
6.74746
6.73713
6.70986
6.91992
7.81061
9.56057
9.38494
8.0521
7.53028
7.66843
7.75605
7.91134
8.0135
7.95443
7.85104
7.70238
7.54524
7.43969
7.40523
7.40866
7.40571
7.31651
7.47938
7.51038
6.7342
6.74256
6.7333
6.71248
6.98242
7.63219
9.37243
9.55244
8.28376
7.73784
7.78939
7.9005
8.17197
8.50496
8.62523
8.56644
8.36108
8.18241
8.22016
8.484
8.91782
9.36296
10.3804
12.0278
12.1555
6.74661
6.72411
6.73012
6.68566
6.78111
6.7163
6.74002
8.4835
8.76078
8.16876
8.30822
8.86734
9.47659
10.268
10.592
10.7216
10.9668
11.4562
12.1938
13.0453
13.9403
14.7643
15.6158
16.1559
16.0369
6.75356
6.71501
6.71844
6.72677
6.64855
6.72071
6.85462
6.90861
6.79187
7.20558
7.64726
8.35516
8.89751
9.68526
10.3386
10.7399
11.1721
12.5582
13.0963
13.7744
14.4383
15.4912
16.0367
16.7165
16.9831
6.74215
6.73595
6.70718
6.70392
6.71169
6.64777
6.71019
6.75309
6.78836
6.80704
6.90348
7.50213
8.1726
8.87426
9.56826
10.1505
10.8524
11.763
12.4055
13.3174
14.5329
16.1213
16.7393
17.1143
17.3915
6.7446
6.72897
6.72152
6.7034
6.6874
6.69482
6.68163
6.6603
6.7551
6.80597
6.86999
7.02537
7.2353
7.60977
8.53869
9.60464
10.6449
11.5961
12.4865
13.1111
13.8437
14.9849
16.0448
16.8366
17.1078
6.74508
6.72887
6.71747
6.71183
6.68878
6.67763
6.69469
6.7039
6.6478
6.76694
6.83597
6.94514
7.23668
7.54783
8.18455
10.0462
11.3762
12.5834
13.3997
14.1198
14.6329
15.2054
15.5824
16.2673
16.4901
6.74102
6.74219
6.71683
6.78233
6.80384
6.86101
6.98738
7.10651
7.2564
7.40824
7.49862
7.51004
7.53632
7.68985
8.04119
8.61302
9.46523
10.8002
13.2973
16.1418
17.0268
17.0952
17.7436
17.5522
17.4602
6.74398
6.7379
6.73063
6.77314
6.8203
6.94884
7.14368
7.60414
8.11218
8.59729
9.02851
9.42481
9.9732
10.7116
11.5726
12.4956
13.391
14.2375
15.0552
15.795
15.9954
16.1615
16.1573
15.5068
15.4446
6.7501
6.73174
6.73569
6.76993
6.83906
7.32624
8.0793
8.54701
8.78583
9.02248
9.09935
9.16823
9.48505
10.0687
10.8578
11.7001
12.3528
12.7945
13.0945
13.2705
13.3709
13.4416
12.7596
11.2197
11.7372
6.75121
6.73371
6.74065
6.77872
6.85278
7.45267
8.38527
8.64399
8.35044
8.29252
8.36189
8.51495
8.54005
8.42305
8.22447
8.05755
7.87948
7.66391
7.50378
7.37975
7.22108
7.15488
6.91364
6.86503
7.21544
6.75049
6.73624
6.74423
6.78629
6.86973
7.44753
8.47762
9.06883
8.96801
8.15233
7.94789
8.0551
8.21247
8.32102
8.28336
8.11455
7.87574
7.63534
7.45881
7.36079
7.31225
7.29083
7.28376
7.16612
7.17588
6.74869
6.73752
6.74427
6.79591
6.89736
7.45813
8.88758
9.62638
6.0214
5.11513
5.33909
6.05357
7.03792
7.88035
8.14298
7.92186
7.58689
7.35297
7.27124
7.25903
7.2456
7.23127
7.24797
7.28418
7.30246
6.74713
6.73621
6.73821
6.79324
6.90475
7.52274
9.78322
9.25858
5.9041
4.98153
4.72747
4.80494
5.92298
7.78863
8.16677
7.65601
7.02482
6.71814
6.90522
7.19298
7.25271
7.23749
7.24887
7.28283
7.29101
6.74737
6.73261
6.729
6.7734
6.88169
7.69137
10.586
10.4361
6.37821
5.32542
4.89228
4.65958
5.94677
8.36383
8.67553
7.94685
7.03044
6.54358
6.74373
7.15764
7.25756
7.24251
7.25167
7.28479
7.29293
6.74954
6.72718
6.72304
6.75751
6.85098
7.87991
10.1235
7.42209
5.65883
4.8887
4.48832
4.47743
6.5674
8.54686
8.81665
8.02498
7.09371
6.64133
6.85497
7.18293
7.25455
7.2423
7.25379
7.28839
7.30075
6.75157
6.72164
6.72421
6.74202
6.8233
7.99514
9.93441
9.50853
6.24536
5.0552
4.90134
5.67491
7.46025
8.48855
8.482
7.8615
7.1956
6.92209
7.07807