/*--------------------------------*- C++ -*----------------------------------*\
  =========                 |
  \\      /  F ield         | OpenFOAM: The Open Source CFD Toolbox
   \\    /   O peration     | Website:  https://openfoam.org
    \\  /    A nd           | Version:  6
     \\/     M anipulation  |
\*---------------------------------------------------------------------------*/
FoamFile
{
    version     2.0;
    format      ascii;
    class       volScalarField;
    location    "40";
    object      p;
}
// * * * * * * * * * * * * * * * * * * * * * * * * * * * * * * * * * * * * * //

dimensions      [0 2 -2 0 0 0 0];

internalField   nonuniform List<scalar> 
230684
(
64.5998
64.0311
62.7632
60.097
52.8901
40.5824
34.2164
36.8542
37.8719
36.6458
34.0522
30.5702
27.6697
26.3943
26.0337
24.9101
22.7341
19.8051
16.3792
12.6786
9.00991
5.73784
3.1915
1.12309
0.292295
66.1449
66.0164
65.3033
65.7376
56.9522
38.0994
23.1159
38.1569
39.4893
37.8222
35.3097
30.5888
26.5458
25.3818
26.3083
25.7529
23.7489
20.7533
17.2329
13.4314
9.58153
6.09881
3.27822
0.879953
0.141013
68.5294
68.7956
69.3199
74.5468
92.1394
15.7247
23.2849
33.9584
41.1343
40.2479
38.8051
29.4237
22.5377
21.5669
26.4398
26.7541
24.6273
21.4863
18.1074
14.0476
9.70539
6.13465
2.63807
0.847702
0.206938
71.225
71.0174
73.1311
66.5369
84.445
10.1264
20.796
35.8236
37.8506
41.0712
55.3939
-9.15388
-0.43612
17.3834
22.5105
29.9947
26.4061
22.7171
18.6049
14.241
9.20933
5.50461
2.34069
0.685417
0.124427
74.1422
74.9419
77.2222
79.3926
70.0442
27.3904
27.8622
25.0209
25.6603
32.3698
52.9455
-49.9966
-1.74748
11.6668
24.8512
29.9874
27.5717
23.4494
19.0995
14.2544
9.27659
5.40752
2.57693
0.401173
0.0563077
76.547
77.9061
82.13
92.6645
101.05
42.2608
46.7826
15.4854
0.238472
18.3394
27.4951
9.96557
12.2248
22.8096
23.4786
29.036
27.0778
23.7784
19.4235
14.6005
9.04222
5.32085
2.29325
0.362479
-0.0072645
77.3128
78.4486
83.4975
97.6867
110.967
72.0114
76.1989
67.7286
12.0176
25.4269
30.5165
22.8969
20.7804
24.0172
29.499
27.8953
25.9458
23.1201
19.2539
14.4661
9.39301
5.6578
1.94193
0.254462
-0.12986
76.6954
77.2432
80.3983
86.94
87.8369
92.6574
104.14
65.4412
11.3203
21.6446
23.5153
47.5842
20.6084
22.5043
28.0991
33.5039
31.9583
26.8187
20.9777
15.1436
9.95461
5.49794
1.82644
0.145571
-0.130223
75.6338
75.9102
77.9366
81.5794
85.3067
92.5045
104.312
-40.4847
8.15782
24.4049
28.9051
39.2292
10.8214
14.8909
26.29
38.7679
36.4516
28.9937
21.7732
14.9993
9.54008
5.18557
1.60949
0.0987171
-0.14858
74.4367
74.6151
76.2387
79.3863
83.2465
87.0078
87.9897
36.5304
2.11299
17.4062
22.881
29.2499
19.9233
19.9655
19.9917
26.3495
31.0611
26.568
20.2242
13.9982
8.84463
4.62178
1.16712
-0.0785186
-0.247115
73.1057
73.2017
74.7169
78.632
92.081
81.2514
96.5356
30.3215
25.9766
30.649
38.873
28.1103
22.3355
20.077
23.0997
25.0463
27.0728
25.4794
19.5361
12.5836
7.43326
3.83103
0.734465
-0.375613
-0.582832
71.675
71.5991
72.5959
74.8329
78.1756
87.5826
65.9433
77.6468
28.7938
52.493
31.3409
33.9474
35.1606
25.821
26.9337
29.0412
24.121
25.9674
16.5013
10.8682
3.83088
3.95149
1.63131
0.721668
0.166734
70.3724
70.1691
70.6208
71.2855
71.9012
71.3256
68.6913
77.3196
48.8422
56.739
47.0223
13.1513
28.368
45.1476
38.501
50.3129
23.913
29.6598
33.0695
6.89549
3.14793
3.39774
1.16607
0.316153
0.380492
69.3407
69.0783
69.1964
69.1607
68.9295
68.0873
66.4687
63.355
59.4128
59.8131
59.688
37.0713
11.9945
34.4208
31.4264
16.1506
27.9419
37.2705
44.1492
0.327285
-4.72379
-3.10152
3.04383
1.08619
0.426005
68.5986
68.3122
68.2656
68.0523
67.7632
67.2397
66.493
65.2672
64.0056
66.7627
79.2874
88.9925
-1.69734
23.8885
29.0365
33.2506
29.7837
31.2328
22.287
1.69057
1.0839
-0.561517
5.9345
1.98365
1.38887
68.1156
67.8386
67.7269
67.4351
67.1748
66.972
66.9136
66.9243
68.2245
72.7799
86.0888
98.6368
7.73335
30.0298
40.6228
29.1611
31.6831
35.4318
29.9894
0.280547
3.10226
1.63363
-1.5669
2.9028
0.529816
67.8367
67.5933
67.4517
67.3923
67.4612
67.7307
67.2325
63.7581
64.1592
69.3025
75.3336
90.3199
8.73367
31.8154
30.9392
32.4516
40.0631
38.0659
15.3846
6.80797
6.22555
8.01251
4.56574
3.72945
1.54181
67.6636
67.4523
67.4046
67.5713
68.1834
69.4338
71.4943
57.274
61.8522
62.5603
61.8876
56.0069
35.9477
34.2776
46.4821
38.2997
28.9423
59.2289
-40.6755
-10.2252
5.01181
12.5005
8.63908
5.21843
2.40797
67.5258
67.3052
67.2208
67.2697
67.5257
68.1908
71.3406
50.8876
61.9938
63.0243
64.8405
72.0137
29.4136
52.4231
43.2434
42.9196
49.2252
66.6956
-41.6725
-8.78649
13.9578
11.6235
9.52838
6.20251
3.19949
67.4395
67.2002
67.0529
66.9475
66.7893
66.4792
65.925
62.3007
59.9641
58.5438
55.7712
51.8409
44.5309
45.5117
42.8952
39.2499
37.9352
30.0553
0.213378
6.94922
13.0126
11.5636
8.7608
5.57038
2.77582
64.3289
63.813
62.3815
59.1898
52.6676
41.421
35.2203
37.1203
37.7956
36.4849
33.9194
30.5381
27.7541
26.4225
25.821
24.5465
22.3533
19.4515
16.0431
12.34
8.69853
5.47813
3.05561
1.10762
0.24992
65.7594
65.6353
64.8536
64.6249
57.2093
40.1188
5.61712
38.5147
39.7235
37.8448
35.179
30.4474
26.5356
25.3626
25.9457
25.2704
23.3059
20.4085
16.9684
13.2184
9.40822
5.94741
3.2326
1.00698
0.313352
68.0023
68.2354
68.5623
72.6752
98.9995
32.7161
40.8987
39.7747
38.0087
28.8431
22.796
21.5717
26.0498
26.2105
24.1787
21.2966
17.8788
13.8381
9.57542
5.89837
2.32805
1.00764
0.397721
70.6
70.3783
72.7034
69.8359
85.6449
36.0524
37.2912
38.7428
53.1773
1.72563
25.5586
27.9597
25.286
21.9597
18.0382
13.5944
8.91909
5.24765
1.94027
0.739383
0.209198
73.3762
74.1837
75.9139
77.2343
67.7235
25.2991
28.8527
31.7083
27.4191
29.4278
45.4066
21.5956
27.9888
26.0948
22.6513
18.2815
13.6579
8.92823
5.07993
2.04541
0.456792
0.0857436
75.6873
77.0899
80.7598
90.2499
107.907
-15.4065
5.66904
21.2936
10.8635
12.6128
21.6722
28.5301
26.4935
23.2319
18.9873
14.049
9.0713
5.19052
1.80999
0.403516
0.0458469
76.5451
77.7876
82.2431
95.2385
124.672
38.5316
17.4707
25.0649
27.9048
28.11
26.2056
23.2947
19.347
14.3241
9.4007
5.14129
1.38749
0.269034
-0.0733383
76.1245
76.8367
79.7969
85.7008
86.192
92.0625
104.863
117.516
11.8014
9.80629
17.0829
26.4291
27.8423
24.4189
19.5411
14.3387
9.41089
4.96819
1.33122
0.148638
-0.0957504
75.1976
75.6349
77.6418
81.0093
84.6539
91.955
106.112
7.22466
5.71413
18.7805
32.6918
32.0004
26.3812
20.2509
14.2319
9.11159
4.78644
1.24294
0.112388
-0.0830093
74.0695
74.3809
75.9819
78.8607
82.3453
85.8565
85.1901
19.7119
-1.58296
20.1135
23.4294
21.8559
16.4602
20.8004
20.0672
27.7769
29.2247
25.1232
19.3234
13.4889
8.43233
4.25321
0.813396
-0.0129548
-0.137876
72.7904
72.9955
74.4313
77.7366
88.0825
82.5727
96.4117
22.2525
19.1825
21.4403
22.7586
23.8987
24.7307
24.5931
18.6721
12.0503
7.11717
3.45084
0.271892
-0.106922
-0.281579
71.425
71.4521
72.3967
74.3064
76.7971
80.4725
70.4627
71.9818
27.7983
13.9543
26.9016
22.2157
12.9876
5.01756
3.84913
0.564217
0.3033
-0.0272228
70.1788
70.0673
70.5038
71.0658
71.4712
70.4639
67.6522
84.3324
15.8533
25.9619
45.8638
34.3157
44.4644
14.2105
31.1253
1.01251
2.6031
3.11363
0.734848
0.134955
0.242165
69.1842
69.0043
69.1176
69.0965
68.8349
67.9374
66.2822
62.3088
58.9074
59.5085
56.6445
38.2246
11.6939
33.9247
32.4094
10.6232
29.2958
35.3118
66.2382
0.362955
1.17725
0.698805
0.56244
68.4609
68.253
68.202
68.0182
67.7351
67.2276
66.5071
64.5696
63.339
65.483
75.5303
111.854
18.3745
30.0968
33.7112
30.0921
30.3068
22.9701
2.87212
1.51913
1.93579
3.37533
1.43604
1.17359
67.9855
67.7873
67.6646
67.3455
67.0839
66.916
67.2461
67.3757
67.9547
71.0281
81.6971
124.321
27.1069
40.2811
33.9512
33.7129
-2.64377
3.01326
0.845313
67.7069
67.5507
67.4204
67.3323
67.3693
67.6056
67.2803
63.91
63.9766
67.988
71.2447
91.9153
32.7949
23.247
40.1816
7.32093
4.30178
6.5525
7.64024
4.90894
3.3715
1.22994
67.5302
67.4085
67.3618
67.4744
67.9828
69.0741
71.3465
56.4922
63.5573
62.0907
61.2635
56.0604
37.233
29.9541
47.2088
20.1089
84.3919
-14.8714
5.58257
12.1832
8.16618
4.56037
1.78625
67.3951
67.2648
67.1886
67.1971
67.3587
67.8464
71.1009
39.7675
64.0495
62.2928
63.4354
76.2847
50.526
42.5507
41.3726
46.832
89.5217
-11.4076
14.4861
12.0956
8.89805
5.30604
2.38966
67.3126
67.167
67.0386
66.9149
66.7407
66.3924
65.6909
62.2059
60.0557
58.4679
55.448
51.8213
45.4616
45.1917
42.684
38.4035
36.4619
30.039
7.39889
7.43658
13.0812
11.6561
8.58759
5.22492
2.57873
63.9194
63.3728
61.6628
57.9989
52.0737
42.6872
37.4558
37.7634
37.8263
36.301
33.7776
30.6446
28.0334
26.5826
25.6629
24.2543
22.1235
19.3073
15.8939
12.1515
8.51614
5.33825
2.9956
1.16129
0.261132
65.2073
64.9636
63.8996
61.9709
52.3938
39.8669
32.8131
36.8706
38.8358
37.3478
34.7475
30.6177
27.2801
26.0379
25.9739
25.1053
23.0766
20.1642
16.6921
12.9295
9.131
5.6747
3.04127
0.812161
0.314262
67.2776
67.2886
67.0255
67.7145
60.8677
21.6086
32.782
34.7857
38.9074
38.2048
35.7111
28.915
24.4761
23.5788
25.7952
25.5448
23.6797
20.7909
17.3279
13.4458
9.28831
5.50399
1.80439
0.715631
0.369271
69.7528
70.0237
70.101
69.2257
66.096
17.3056
29.5272
34.8272
35.3212
35.5966
39.1332
12.965
17.9718
17.0657
24.5764
25.8137
24.2839
21.2372
17.4083
13.2044
8.81415
4.9342
1.34104
0.516594
0.176082
72.3605
72.9081
73.7481
73.6403
63.4892
34.7838
35.0547
32.5409
21.6356
21.6886
31.5442
10.2282
14.7149
20.6773
23.5254
25.8633
24.612
21.7243
17.6241
13.246
8.81532
4.82679
1.36258
0.345691
0.0532466
74.588
75.6623
78.2512
83.7581
88.3807
-29.9227
-6.99092
12.4547
13.9397
14.5803
22.0484
24.5614
26.3936
25.0891
22.1838
18.1448
13.6319
9.001
4.839
1.17359
0.24134
-0.00865793
75.5627
76.5902
79.9621
87.9678
91.2706
51.6553
7.75453
22.3446
28.2341
27.9985
25.8724
22.6992
18.8705
14.113
9.24695
4.73374
0.850106
0.114062
-0.0920092
75.375
76.0462
78.5534
82.8255
83.0314
89.466
104.077
116.449
0.523651
7.19484
24.7944
30.8069
28.6008
24.0414
19.4336
14.3588
9.21116
4.60679
0.809765
0.0728129
-0.100753
74.6253
75.0772
76.9132
79.7199
83.1129
90.5016
105.84
11.9493
7.46352
15.9014
28.3456
33.4581
30.1719
24.8819
19.5867
14.1612
8.90574
4.46858
0.750968
0.0134602
-0.102422
73.6024
73.9218
75.3849
77.7113
80.4365
83.1611
78.395
12.4421
10.3511
26.7247
24.4565
17.9658
11.5285
20.8428
25.1226
27.7913
27.3092
23.6121
18.6984
13.3231
8.2568
4.04634
0.346235
-0.134519
-0.167509
72.4055
72.6088
73.8414
76.0266
78.716
78.5525
79.7574
22.0152
32.7125
31.2497
28.8493
19.6829
21.9499
24.313
24.5574
24.1487
24.0813
23.2277
18.0515
12.0678
7.18073
3.32595
-0.124048
-0.13644
-0.233536
71.1313
71.1781
71.9773
73.2315
74.2481
73.0601
65.8718
54.9247
40.1877
28.3418
22.0465
20.7199
31.1284
34.9214
31.865
26.8772
12.206
24.2836
17.0711
9.67865
6.08078
3.15828
-0.128701
-0.0293104
-0.135343
69.9674
69.8949
70.2669
70.5849
70.5747
69.1435
65.1863
57.8981
51.9702
64.0349
26.7694
26.8766
33.2593
40.0924
35.2316
32.4428
22.8686
30.6257
11.08
4.06901
4.55726
2.34115
-0.112335
-0.16899
-0.00937755
69.0308
68.9018
68.9904
68.8931
68.5446
67.5431
65.0122
61.0715
58.523
57.5408
52.9225
38.933
27.0529
34.0418
32.8483
28.7257
27.8365
28.697
19.8077
4.93572
5.62429
1.38162
-0.0972647
0.18619
0.227776
68.3416
68.1879
68.1255
67.898
67.6457
67.1373
65.8696
64.1755
63.215
63.567
65.7043
50.2342
10.987
27.0833
33.8242
32.3055
29.1126
26.9581
19.1794
8.16196
5.16415
1.58089
-0.202878
0.947148
0.58415
67.8837
67.7412
67.5963
67.1669
66.8665
66.8395
67.8994
68.1544
67.7377
68.3625
69.3493
48.1848
17.343
32.8683
39.3614
33.7692
29.0922
28.4587
18.0517
7.67717
5.97917
3.12126
1.41405
1.90182
0.604452
67.6124
67.5118
67.3651
67.2208
67.1868
67.2751
67.1206
64.7143
64.0808
64.4125
65.5398
54.9378
22.6565
36.4018
41.5805
33.0886
30.0416
30.2561
8.91403
6.09267
7.60335
6.80709
4.57629
2.86674
0.932151
67.4366
67.3694
67.3006
67.3182
67.5819
68.2034
69.2362
58.7508
63.4125
61.0759
58.749
52.5704
40.8406
42.3554
41.0809
36.5765
36.0227
38.639
-7.95963
1.36105
9.59027
9.9083
6.76197
3.91584
1.35262
67.3039
67.2302
67.1352
67.0677
67.0555
67.0283
68.0908
47.3795
63.1322
61.2309
60.5015
52.6211
42.7833
45.6015
41.7262
38.6374
39.023
31.9306
-12.5896
3.47798
12.3423
10.4837
7.21472
4.23997
1.88385
67.2252
67.1393
67.0027
66.8331
66.587
66.1
65.1434
62.1498
60.1154
58.3417
55.2279
50.9936
46.2525
44.3213
41.7172
37.2298
34.0573
24.2392
8.28872
10.4003
13.7073
11.2928
7.90895
4.58566
2.414
63.4165
62.8089
60.8911
57.0542
50.3582
42.8098
38.9175
38.3744
37.8254
36.1563
33.6903
30.8034
28.3566
26.7765
25.5427
24.0373
21.9477
19.1347
15.6763
11.9068
8.28768
5.16814
2.87607
1.14217
0.24306
64.5598
64.1594
62.8172
59.8903
52.1356
41.8625
37.6865
37.8058
38.339
36.8516
34.3578
30.9215
28.2127
26.7756
26.1031
24.9272
22.7614
19.7993
16.2968
12.5336
8.80409
5.39852
2.8052
0.611416
0.308918
66.4419
66.2022
65.3084
63.5512
54.8542
37.4891
36.531
36.5989
37.5466
36.5181
34.0944
29.4623
26.1905
25.2294
25.6836
25.0625
23.0371
20.1332
16.7273
12.9678
8.98166
5.14787
1.42762
0.478279
0.356385
68.7491
68.6722
68.0675
66.0434
58.3712
38.5805
36.1812
35.4441
33.589
32.646
32.397
23.8551
21.8134
22.2812
24.633
24.9246
23.4778
20.4965
16.8963
12.8518
8.64424
4.63615
0.870294
0.328786
0.160854
71.1952
71.387
71.3924
69.9085
60.5901
42.7871
40.2787
33.9274
19.4341
17.8623
23.8066
19.9098
19.214
22.319
24.1794
24.8069
23.5442
20.8395
17.0958
12.907
8.72214
4.59501
0.819731
0.179054
0.0102809
73.3245
73.9158
75.2095
76.5092
66.9213
43.4054
56.6966
24.5049
-22.1817
-7.72697
9.848
15.9295
17.2077
22.8493
25.2311
25.4088
23.9917
21.1304
17.5058
13.2789
8.84102
4.58802
0.679347
0.0660774
-0.0590073
74.4159
75.0635
77.0893
80.0116
71.1966
69.7864
86.8981
90.8839
8.65338
23.6036
28.7439
27.7133
25.2069
21.842
18.2394
13.9167
9.1214
4.50022
0.470427
-0.0303858
-0.118544
74.473
74.9615
76.7779
79.3659
79.822
87.2266
105.114
120.554
1.35861
20.2146
33.3259
32.3571
28.0001
23.1915
19.1192
14.5952
9.21396
4.43252
0.42168
-0.0531463
-0.134885
73.9237
74.2745
75.7598
77.9526
80.9394
87.9825
103.069
8.84831
7.82315
23.4873
32.7677
32.4377
28.1928
23.3841
19.0872
14.3151
8.92397
4.33438
0.3559
-0.118324
-0.148963
73.0345
73.2659
74.4512
76.1988
78.1432
79.6514
71.8097
16.8601
16.7356
23.7409
24.2906
15.4546
11.8263
22.5358
27.3512
27.4998
25.6553
22.2131
18.1848
13.315
8.26379
3.94406
0.04384
-0.254917
-0.203643
71.9476
72.0687
72.9967
74.3084
75.2333
74.074
63.4204
35.8533
34.2958
32.7407
29.0518
24.7597
25.6497
27.7362
26.9478
25.2519
23.6118
21.682
17.3955
12.135
7.30552
3.33787
-0.369681
-0.304427
-0.247194
70.7893
70.7887
71.3612
72.0155
72.0923
69.9906
61.5453
51.2684
47.289
42.5619
33.9062
27.0522
31.2811
32.994
30.3696
26.331
22.2892
21.8393
16.6214
10.6141
6.47582
2.80058
-0.583343
-0.332249
-0.218795
69.7295
69.6448
69.8898
69.9501
69.5617
67.7355
63.1614
56.824
52.5755
50.0208
37.3959
33.4598
34.7873
35.8469
32.6474
28.6971
24.5542
24.1732
16.6475
8.71386
5.77509
2.34931
-0.729252
-0.36474
-0.127578
68.8694
68.7484
68.7766
68.5847
68.1325
66.8448
64.0082
60.6889
58.096
55.5952
50.3461
41.4713
33.9246
34.3445
32.7165
29.6021
26.8088
24.4678
17.3586
9.36548
6.18313
2.22644
-0.786245
-0.0845356
0.0617991
68.2278
68.0888
67.9946
67.7379
67.4947
66.8352
65.44
64.3768
63.0909
61.6521
58.9781
46.6659
30.3119
32.8457
34.0389
31.669
28.2566
24.5407
17.7683
10.2659
6.23878
2.5187
-0.251975
0.434113
0.322635
67.7946
67.6685
67.4891
66.9936
66.6327
66.8788
68.5263
68.6539
67.2726
65.8546
62.489
48.6364
34.2993
36.9203
37.5001
33.7676
29.5677
25.4026
16.9521
9.37183
6.21616
3.38427
1.82859
1.41276
0.483733
67.5337
67.4506
67.2871
67.1008
67.0189
67.0325
66.6267
64.5474
64.1327
63.0427
58.8392
49.9569
39.9925
39.8342
38.4567
34.4016
30.3306
27.108
13.9123
8.71822
8.02341
6.12195
3.9584
2.53375
0.773757
67.3611
67.308
67.2123
67.1397
67.1763
67.2513
66.9211
61.224
61.34
60.3665
56.8678
50.3592
43.4925
42.3467
40.2259
36.3295
32.3614
28.2763
8.83654
8.98173
10.1682
8.76626
6.1199
3.62106
1.23591
67.231
67.1742
67.0562
66.9146
66.7388
66.3176
65.0683
60.902
61.3605
60.0642
56.6396
50.9717
45.4451
43.7059
41.0079
37.1587
32.3744
26.8594
7.17193
10.3786
11.5499
9.80291
6.81009
3.99179
1.91828
67.1552
67.0893
66.939
66.7242
66.4036
65.7998
64.7139
62.3522
60.2756
58.3198
55.2317
51.0377
46.5728
43.8983
40.9635
36.5612
30.9459
22.568
13.6397
12.3646
13.0212
10.6175
7.45435
4.23257
2.47208
62.8911
62.2453
60.2303
56.5103
50.7884
44.4873
40.6074
39.1064
37.9406
36.1145
33.7164
31.045
28.7278
26.9934
25.4928
23.8752
21.7589
18.9184
15.4282
11.6577
8.08719
5.03814
2.77585
1.09075
0.209255
63.8996
63.3886
61.8728
58.6325
52.3693
44.5502
40.339
38.9767
38.2537
36.5761
34.2105
31.3294
29.0355
27.3876
26.2381
24.7099
22.3888
19.3838
15.8751
12.1554
8.5165
5.18254
2.61165
0.459264
0.276267
65.5998
65.1839
63.8665
61.1244
54.2272
44.3194
40.0772
38.1398
37.1412
35.6153
33.3848
30.1501
27.592
26.3063
25.7739
24.6192
22.4416
19.5224
16.1919
12.5707
8.68505
4.91043
1.18802
0.323486
0.318249
67.7288
67.4292
66.3198
63.5977
56.7924
45.9952
40.613
36.8552
33.1375
31.1722
30.1116
26.6011
24.6386
24.5475
25.0748
24.4721
22.7558
19.8171
16.4159
12.5197
8.44836
4.38855
0.55635
0.194507
0.11076
70.0144
69.9267
69.3154
67.0562
59.9952
49.7109
44.9529
35.598
20.577
18.2212
22.0764
22.4411
22.4559
24.0334
24.8318
24.429
22.8106
20.0837
16.6004
12.6073
8.5223
4.41476
0.474923
0.0386256
-0.0440632
72.039
72.2496
72.5489
71.781
65.0149
56.9394
60.718
33.4124
-12.8816
-0.0376043
14.7728
18.4999
19.5261
24.096
25.6591
24.9542
23.1394
20.287
16.886
12.9315
8.6825
4.34981
0.376729
-0.062037
-0.115179
73.2262
73.5523
74.5326
75.1793
71.2274
72.6294
87.2557
103.718
13.0369
24.9106
28.8167
27.1219
24.2322
20.9301
17.5505
13.7101
8.98911
4.3639
0.249299
-0.130969
-0.162658
73.5067
73.8024
74.9674
76.413
77.515
84.2734
101.346
124.368
6.82261
25.5167
32.6241
29.9473
25.9446
21.8128
18.3305
14.4985
9.20301
4.38433
0.196603
-0.15892
-0.18296
73.1557
73.3777
74.464
76.0315
78.4246
84.2725
97.6883
5.87337
8.45196
24.4838
31.4046
29.6063
25.8945
21.8378
18.3122
14.2229
8.936
4.31384
0.125292
-0.221328
-0.204777
72.4131
72.5367
73.4059
74.567
75.7534
76.1141
68.3299
21.0058
19.4232
26.0788
26.0965
12.797
15.1329
25.3778
28.2441
26.9038
24.3258
21.0292
17.6054
13.2234
8.33125
3.95709
-0.101115
-0.334194
-0.249089
71.4533
71.4805
72.107
72.7626
72.8381
70.634
60.7462
42.8275
36.2904
34.1091
30.7032
27.2981
28.2632
29.3653
28.134
25.8312
23.3751
20.7308
16.8372
12.1531
7.52568
3.46659
-0.44396
-0.409208
-0.277467
70.4235
70.3641
70.707
70.8802
70.3628
67.7928
60.6021
51.6084
46.5875
42.4101
36.8576
32.8585
33.0513
32.6228
30.0979
26.6822
23.4508
20.8708
16.4144
11.2766
6.86174
2.97636
-0.720386
-0.470266
-0.269916
69.4779
69.3691
69.4792
69.2907
68.6013
66.5021
62.0594
56.7455
52.655
48.6904
41.9074
37.6747
36.2179
34.8486
31.9166
28.2544
24.7846
21.8564
16.5117
10.7604
6.57522
2.69646
-0.878586
-0.454235
-0.215738
68.7035
68.5787
68.5418
68.2458
67.6697
66.1526
63.3659
60.4986
57.7357
54.4797
49.5148
43.0145
37.5381
35.4603
32.9703
29.7099
26.3447
22.6824
16.8995
10.9906
6.69814
2.68021
-0.81997
-0.213948
-0.0532007
68.1172
67.9824
67.8597
67.5722
67.3116
66.5578
65.2951
64.5357
62.7463
60.1859
55.9173
47.1002
38.1256
36.1073
34.5176
31.4385
27.6389
23.128
17.1584
11.1058
6.6924
2.91393
-0.196491
0.137877
0.150308
67.713
67.5931
67.3907
66.8572
66.472
66.9719
68.9603
68.8558
66.78
64.1722
59.7121
50.383
40.7882
39.2111
37.4434
33.6611
28.9882
23.6089
16.4936
10.2099
6.38858
3.32556
1.51226
1.07096
0.334688
67.4643
67.3869
67.2167
67.01
66.917
66.9811
66.8413
65.4055
64.1381
62.1054
57.8294
50.7382
43.0769
40.671
38.3367
34.0503
29.1553
23.3523
14.613
9.90617
7.97314
5.81397
3.57117
2.21382
0.645634
67.295
67.2441
67.1288
66.9924
66.8707
66.6197
65.6333
62.7537
61.4175
59.9058
56.3637
50.7336
44.9367
42.4468
39.6853
35.3859
30.448
23.8155
13.6464
10.5415
9.93178
8.14585
5.58763
3.1943
1.1475
67.1673
67.1147
66.9795
66.7835
66.5048
65.9677
64.847
62.4845
61.0719
59.3876
56.1291
51.2662
46.3256
43.5184
40.4612
36.2252
30.8969
23.1628
13.9497
11.7063
11.4017
9.37682
6.44016
3.57484
1.83166
67.0943
67.0352
66.8742
66.6236
66.2465
65.5873
64.4862
62.4764
60.4178
58.2514
55.1502
51.1227
46.905
43.6902
40.4002
35.9859
30.4899
23.4485
16.1574
13.5177
12.7203
10.2877
7.21931
3.94723
2.47377
62.3992
61.7416
59.7113
56.1666
51.2016
45.8013
41.8946
39.7393
38.1177
36.1634
33.8099
31.2866
29.0476
27.1585
25.4558
23.7206
21.555
18.6913
15.1942
11.4392
7.92133
4.92545
2.67602
1.01304
0.163043
63.2933
62.7243
61.1233
57.8848
52.6486
46.3688
42.1096
39.9581
38.4084
36.5142
34.2441
31.7142
29.6361
27.8092
26.2783
24.4549
22.0264
18.9994
15.5017
11.8265
8.26252
5.01313
2.46757
0.339353
0.23242
64.8338
64.3199
62.7687
59.799
54.3538
47.3978
42.4784
39.3335
37.2098
35.265
33.1889
30.7377
28.575
27.0415
25.8723
24.2694
21.9809
18.9743
15.7763
12.1809
8.39649
4.73176
1.03667
0.224508
0.273414
66.7996
66.3732
64.9666
62.0625
56.6085
49.2691
43.3669
38.2276
33.5778
30.9868
29.6869
27.8454
26.3281
25.7359
25.3918
24.1171
22.1545
19.272
15.9816
12.2298
8.19444
4.21989
0.371569
0.080687
0.0518076
68.9334
68.6713
67.6512
65.1426
59.9289
53.0492
47.2018
36.7844
23.428
20.9331
23.1903
24.1731
24.5271
25.3055
25.3069
24.2319
22.2345
19.4553
16.1362
12.3225
8.24728
4.23695
0.285106
-0.0560883
-0.0956174
70.8598
70.8234
70.4701
68.9733
64.7945
60.5722
59.7473
35.2674
-9.90678
2.27084
16.1498
19.8947
21.6955
25.0926
25.8075
24.5701
22.4446
19.5925
16.3263
12.5871
8.42338
4.14424
0.231704
-0.141198
-0.166915
72.1118
72.2123
72.4782
72.2321
70.5423
71.8042
80.3537
97.6888
14.4208
24.8869
27.6158
25.8693
23.0697
20.0233
16.8172
13.2052
8.73524
4.2025
0.158132
-0.190638
-0.207059
72.5702
72.7029
73.3218
74.0351
75.0963
79.664
89.8348
112.072
9.14692
23.9009
29.2407
27.2748
24.0089
20.4739
17.3241
13.7678
8.94066
4.28661
0.105781
-0.223101
-0.229455
72.3944
72.4929
73.179
74.136
75.7216
79.292
86.9177
3.68372
8.92943
24.6958
29.2154
27.3082
24.0801
20.5272
17.3736
13.6272
8.75707
4.26703
0.0360096
-0.281035
-0.254641
71.7959
71.818
72.3664
72.9827
73.4353
72.6721
64.7657
26.891
23.9281
28.8884
28.1102
13.5086
20.6969
27.8408
28.4111
26.206
23.3263
20.1588
16.9249
12.849
8.3277
3.94573
-0.136475
-0.37462
-0.292213
70.9672
70.9106
71.2554
71.4084
70.8974
68.198
59.8205
45.9009
38.5086
35.8462
32.7789
29.8513
30.2623
30.4395
28.7799
26.0736
23.1862
20.2036
16.3741
12.0425
7.71533
3.56147
-0.407907
-0.452976
-0.314903
70.0657
69.9533
70.0836
69.8885
68.9845
66.2318
60.0388
52.4195
47.0199
42.941
38.7838
35.6792
34.3973
32.9478
30.2822
26.9821
23.7523
20.4254
16.1826
11.5398
7.21375
3.19236
-0.666498
-0.51691
-0.314824
69.2335
69.1005
69.0809
68.6806
67.7644
65.5328
61.3289
56.7154
52.6811
48.6859
43.7839
39.8687
37.4096
35.0315
31.9293
28.3095
24.8447
21.094
16.3502
11.45
7.04441
3.01626
-0.799435
-0.477097
-0.273533
68.5459
68.4149
68.3139
67.9241
67.2458
65.5883
62.8834
60.294
57.4055
53.9185
49.3633
44.1054
39.5746
36.5714
33.365
29.805
26.1025
21.8965
16.7096
11.5939
7.08444
3.00334
-0.700694
-0.257015
-0.112602
68.0163
67.883
67.7349
67.4199
67.1419
66.3742
65.233
64.5123
62.3346
59.1785
54.696
48.0492
41.6674
38.1417
35.0703
31.3926
27.1549
22.2584
16.7908
11.443
6.99522
3.16148
-0.102143
-0.018069
0.0530756
67.6415
67.5255
67.3096
66.7681
66.4058
67.1093
69.2602
68.9091
66.3638
63.1341
58.6145
51.6741
44.5765
41.0218
37.7593
33.4183
28.3032
22.5323
16.1595
10.5708
6.50745
3.24999
1.34213
0.810171
0.229159
67.4052
67.3306
67.1623
66.9566
66.8857
67.0328
67.0339
65.8807
64.1209
61.5285
57.309
51.3765
45.1696
41.5061
38.3144
33.862
28.5801
22.694
15.5944
10.7643
7.9617
5.49472
3.23329
1.89891
0.586854
67.2385
67.1871
67.0605
66.8875
66.6945
66.3741
65.5783
63.5382
61.7295
59.6311
56.0856
51.1494
46.0428
42.6675
39.3648
34.942
29.8132
23.6258
15.9657
11.9822
10.0241
7.7424
5.18382
2.83871
1.14095
67.113
67.0607
66.914
66.6847
66.3553
65.7927
64.7734
62.8861
61.1105
59.0488
55.8188
51.469
46.9376
43.4833
40.0367
35.6655
30.428
23.8599
16.5448
13.0885
11.4589
9.03418
6.15852
3.27565
1.81369
67.0422
66.9852
66.8161
66.5409
66.129
65.4512
64.3668
62.5829
60.5321
58.2015
55.0966
51.2368
47.1455
43.5765
39.9846
35.5609
30.2856
24.1357
17.9433
14.4802
12.6115
9.98713
6.96463
3.68377
2.44787
61.9782
61.3248
59.3227
55.9653
51.5503
46.7465
42.88
40.332
38.3659
36.2761
33.9159
31.4751
29.2617
27.25
25.4003
23.5652
21.3446
18.4665
14.9776
11.2533
7.77801
4.81036
2.57324
0.930345
0.122967
62.782
62.191
60.5612
57.4445
52.9043
47.5612
43.3872
40.7854
38.6967
36.5973
34.3588
32.0252
30.0159
28.0421
26.2377
24.2216
21.7073
18.6586
15.1815
11.5556
8.05281
4.86328
2.34606
0.236453
0.198538
64.1931
63.6346
61.9753
59.0648
54.5498
49.0086
44.083
40.3116
37.5382
35.2747
33.2639
31.1765
29.1901
27.5154
25.9418
24.031
21.5387
18.5543
15.4113
11.8399
8.13676
4.53951
0.935766
0.156906
0.244215
66.0214
65.5309
63.9655
61.119
56.6538
50.9095
45.0385
39.401
34.4886
31.5531
30.0319
28.6556
27.3075
26.3886
25.5237
23.8422
21.6626
18.8646
15.5897
11.9381
7.94858
4.054
0.261916
-0.00341335
0.0086881
68.025
67.6637
66.3931
63.8862
59.794
54.3891
48.0312
37.889
27.0981
24.3224
25.1787
25.6645
25.8188
25.9918
25.4872
24.0474
21.7838
18.9984
15.7302
12.0514
8.00168
4.02415
0.182092
-0.121555
-0.133665
69.8652
69.6808
68.921
67.1951
64.1954
60.6344
55.9443
36.193
7.63264
13.3247
19.8796
22.0727
23.5429
25.5963
25.6829
24.2225
21.8943
19.1102
15.9052
12.2399
8.15149
3.96781
0.169737
-0.193591
-0.20611
71.1534
71.101
70.89
70.2035
69.0529
68.6934
68.0808
28.9229
-11.354
13.0657
20.6121
18.5876
19.0703
25.0297
26.4905
24.8552
22.1934
19.3067
16.1695
12.5996
8.39757
4.04047
0.132087
-0.228568
-0.241069
71.7398
71.7437
71.9252
72.0729
72.5267
74.1011
73.8071
7.25733
-9.46716
17.367
22.9502
16.4389
16.5563
24.8019
27.4763
25.7018
22.7317
19.5897
16.4986
12.9566
8.58044
4.1415
0.0849268
-0.260963
-0.263931
71.7067
71.6979
72.0177
72.3994
73.0439
73.8147
70.9118
-15.281
7.93197
24.0912
25.2437
16.1572
18.2572
26.2819
28.0589
25.9424
22.9542
19.6806
16.5763
12.9293
8.49579
4.13664
0.0216668
-0.313852
-0.289589
71.2373
71.1728
71.4225
71.5519
71.3115
69.4598
60.8019
35.0217
28.7117
30.5724
28.8524
23.2034
25.8654
28.9849
28.3468
25.7771
22.7544
19.636
16.3509
12.4518
8.21169
3.89989
-0.119877
-0.393576
-0.322894
70.5294
70.4061
70.5028
70.2734
69.3331
66.3647
58.9972
47.7748
40.7273
37.6552
34.8064
32.3026
31.8382
31.168
29.1788
26.18
23.0787
19.8811
16.0514
11.907
7.79754
3.61468
-0.342735
-0.467197
-0.343603
69.7445
69.5899
69.5398
69.0682
67.9041
65.0543
59.4899
52.9652
47.7589
43.7499
40.0893
37.2539
35.3509
33.3167
30.5298
27.1797
23.8128
20.1865
16.0086
11.6321
7.45805
3.365
-0.565355
-0.525681
-0.344989
69.0155
68.8624
68.7306
68.1732
67.0979
64.7812
60.7526
56.6184
52.768
48.9093
44.7221
41.122
38.265
35.422
32.0998
28.4668
24.8095
20.7869
16.2914
11.6721
7.35325
3.24835
-0.673156
-0.467802
-0.303407
68.4079
68.2719
68.1165
67.6553
66.8942
65.1462
62.4815
60.0822
57.1595
53.6499
49.4285
44.8846
40.815
37.3277
33.7079
29.8696
25.906
21.4675
16.5836
11.8221
7.35352
3.22694
-0.583013
-0.266237
-0.128941
67.9307
67.8008
67.6364
67.2976
67.0265
66.2676
65.2028
64.3886
61.9695
58.5343
54.192
48.7331
43.4961
39.3967
35.5188
31.3325
26.7551
21.6816
16.487
11.5712
7.16289
3.27386
-0.0419448
-0.11504
0.0148345
67.5831
67.4727
67.2522
66.7292
66.441
67.3579
69.5396
68.8677
66.0089
62.5034
58.1527
52.472
46.6439
42.2453
38.0525
33.1778
27.7174
21.838
15.8854
10.6629
6.52108
3.14687
1.22791
0.634825
0.185899
67.3581
67.2868
67.1275
66.9401
66.918
67.1555
67.2254
66.1576
64.1045
61.1657
57.0285
51.8239
46.3525
42.1391
38.3455
33.6412
28.1373
22.3147
16.1108
11.2186
7.89918
5.2069
2.9921
1.6705
0.578878
67.193
67.1411
67.0102
66.8233
66.6069
66.2814
65.5623
63.9132
61.9062
59.4503
55.9318
51.4288
46.6991
42.8691
39.1477
34.6327
29.3992
23.5824
17.3415
12.9097
10.0285
7.42613
4.90305
2.57364
1.15482
67.069
67.0164
66.8634
66.6171
66.2663
65.7057
64.7511
63.0987
61.1615
58.8343
55.6304
51.5917
47.2948
43.5209
39.7749
35.3418
30.1718
24.2709
18.1217
14.0418
11.4903
8.79176
5.92858
3.05796
1.82865
66.9997
66.9434
66.7691
66.4795
66.0493
65.3705
64.3112
62.661
60.6077
58.167
55.0645
51.3253
47.3181
43.5437
39.7313
35.3061
30.2088
24.6039
19.0967
15.2151
12.6219
9.77726
6.77482
3.50268
2.42237
61.6501
61.008
59.0494
55.8571
51.8173
47.4229
43.6416
40.8649
38.6262
36.3842
33.9889
31.5868
29.3624
27.2629
25.3269
23.4212
21.1437
18.2545
14.7839
11.0956
7.65296
4.69694
2.47142
0.853546
0.0992431
62.3885
61.7945
60.1622
57.1893
53.115
48.3701
44.3658
41.485
39.0232
36.726
34.4656
32.2364
30.165
28.1225
26.1445
23.998
21.4229
18.367
14.9181
11.34
7.88555
4.72725
2.21495
0.137304
0.192171
63.703
63.1295
61.4284
58.6483
54.7148
49.9399
45.1606
41.1003
37.9559
35.472
33.443
31.463
29.5184
27.7886
25.9657
23.8057
21.1696
18.2361
15.1142
11.5613
7.90273
4.34922
0.837232
0.0999889
0.23965
65.4253
64.9062
63.2599
60.5269
56.6959
51.7623
46.0282
40.3387
35.4811
32.3703
30.6296
29.2388
27.8813
26.7638
25.5213
23.6568
21.2948
18.5195
15.3033
11.6921
7.72721
3.87264
0.166307
-0.0598732
-0.0102851
67.3267
66.9119
65.4905
63.0372
59.5619
54.7767
48.2674
39.2293
30.5623
27.3387
27.0189
26.8357
26.5893
26.3142
25.4729
23.8395
21.4242
18.6823
15.4086
11.7567
7.76836
3.84489
0.100781
-0.174363
-0.152475
69.0981
68.8263
67.8108
65.9894
63.3874
59.6563
53.0562
37.4082
20.7
20.5484
23.1505
24.224
25.0622
25.955
25.5568
23.9599
21.4893
18.7586
15.5748
11.8784
7.8836
3.80402
0.124173
-0.235229
-0.224188
70.4014
70.2495
69.7088
68.7187
67.3895
65.3883
59.2983
34.4564
10.3154
17.3245
21.9184
21.9782
22.9995
25.7456
26.1047
24.3587
21.7106
18.8432
15.7094
12.1147
8.07614
3.90992
0.116562
-0.259738
-0.256226
71.0728
70.9811
70.8197
70.4959
70.1649
69.1857
62.6386
28.2544
9.57062
19.3521
23.15
21.313
22.3111
26.0935
26.7903
24.9057
22.0604
19.04
15.9252
12.3566
8.2317
4.02131
0.0778567
-0.288894
-0.278424
71.1461
71.054
71.0608
70.9479
70.6987
69.2227
61.168
28.347
19.2022
25.0951
25.9888
23.0741
24.2796
27.5432
27.5935
25.2825
22.3694
19.2048
16.0195
12.4
8.23976
3.98892
0.0251499
-0.337408
-0.303615
70.7812
70.6495
70.642
70.3653
69.5386
66.8136
58.4497
41.2944
33.256
32.4842
30.8573
28.2747
28.7638
29.5991
28.3834
25.6093
22.5055
19.3363
15.9565
12.1654
8.05889
3.83209
-0.0988421
-0.408296
-0.334071
70.1728
70.0001
69.895
69.3809
68.1222