/*--------------------------------*- C++ -*----------------------------------*\
  =========                 |
  \\      /  F ield         | OpenFOAM: The Open Source CFD Toolbox
   \\    /   O peration     | Website:  https://openfoam.org
    \\  /    A nd           | Version:  6
     \\/     M anipulation  |
\*---------------------------------------------------------------------------*/
FoamFile
{
    version     2.0;
    format      ascii;
    class       volScalarField;
    location    "20";
    object      epsilon;
}
// * * * * * * * * * * * * * * * * * * * * * * * * * * * * * * * * * * * * * //

dimensions      [0 2 -3 0 0 0 0];

internalField   nonuniform List<scalar> 
230684
(
0.195678
0.170521
0.153664
0.135766
0.241373
0.203855
0.260355
0.595349
0.641271
0.672282
0.6965
0.729579
0.752251
0.781296
0.827885
0.898342
0.98504
1.07617
1.16215
1.23917
1.3101
1.36567
1.42715
1.43657
1.41896
0.193075
0.175187
0.296234
0.2388
0.375131
0.648567
1.7616
0.650014
0.694475
0.750801
0.843418
0.989376
1.18813
1.5226
1.89423
2.38467
2.85015
3.24595
3.24112
3.294
3.3734
3.48202
3.42089
2.67145
2.19673
0.193916
0.173911
0.306807
0.419136
0.599998
3.86406
1.5153
2.10696
2.31442
2.31401
1.91565
1.87548
1.90922
1.94848
2.31737
2.76858
2.88293
2.79473
2.66352
2.56403
2.48355
2.40651
1.68982
0.940533
0.726833
0.199181
0.333225
0.53248
0.394495
0.264007
4.03325
4.80889
2.22226
1.90654
1.70651
1.59453
7.59237
2.96814
1.89202
2.46613
1.14116
1.06525
1.22954
1.36139
1.39453
1.3719
1.34062
1.06883
0.654282
0.475633
0.193701
0.17426
0.303257
0.406419
0.294586
0.657756
0.879302
1.39679
2.13053
2.23843
2.08562
5.80624
3.01323
2.01985
3.40853
2.96004
2.25315
2.04102
1.88279
1.76489
1.63988
1.52881
1.24712
0.721954
0.506368
0.193669
0.173933
0.301412
0.375762
0.429189
2.04902
0.882394
0.839514
1.21142
1.40686
1.64699
1.79671
2.03048
1.81903
5.01387
1.87072
1.1492
1.05364
1.26107
1.4226
1.51264
1.56278
1.24761
0.702525
0.495755
0.193822
0.173913
0.301684
0.376737
2.12044
1.94797
0.770038
0.655319
0.617743
0.6017
0.586845
0.685038
0.946798
0.77434
0.749424
1.04732
1.37772
1.47459
1.4745
1.44736
1.43723
1.43055
1.19793
0.713075
0.502928
0.194055
0.173951
0.305662
0.408193
0.284404
0.442553
0.579699
6.94113
3.15539
1.04467
0.848012
0.772744
1.26179
2.88744
1.63986
1.16504
0.951534
1.02588
1.15064
1.27549
1.3711
1.4452
1.23724
0.736126
0.522027
0.194179
0.174025
0.30772
0.425751
0.283045
0.386506
0.773452
9.10468
2.56901
1.03138
0.840409
0.753951
2.82769
2.32336
1.69166
1.08772
0.844631
0.906089
1.04073
1.20077
1.31459
1.42148
1.2851
0.744331
0.523057
0.194218
0.17414
0.308601
0.429615
0.300839
0.450101
0.764983
3.05768
2.87984
1.22237
1.21334
1.22029
1.65275
1.57637
2.11111
2.36921
2.09684
1.73912
1.52414
1.44138
1.46028
1.51689
1.31495
0.750406
0.520646
0.194258
0.174234
0.309302
0.4309
0.323304
1.65825
1.85967
4.08294
1.26495
1.09714
1.15947
1.32214
1.55287
0.891827
1.16358
1.17199
1.07194
1.14853
1.20229
1.26899
1.3896
1.48694
1.22405
0.661232
0.468931
0.194251
0.17443
0.310088
0.44164
0.358902
0.754433
1.59606
0.933807
2.11969
1.00944
0.81284
0.782043
0.72522
0.894996
0.797015
0.707774
0.969283
1.27649
1.99479
1.35795
0.816691
1.03665
0.903151
0.539095
0.424024
0.194154
0.174583
0.310362
0.445183
0.431667
0.839977
0.939199
1.98736
1.89406
1.24149
1.26497
1.57016
3.97916
3.48079
2.99675
1.41118
3.60292
0.693651
6.62205
3.56841
2.60847
1.96508
1.24122
0.950764
0.391656
0.194019
0.174623
0.309793
0.439591
0.553555
1.27103
1.40701
1.51991
1.54858
1.59119
1.721
1.6313
1.48338
1.6422
1.73872
2.07131
0.804272
1.12268
3.24106
2.30998
4.95839
2.01023
1.38137
0.997523
0.279522
0.193909
0.174935
0.308675
0.418688
0.704704
1.77885
1.66488
1.82658
2.04795
2.1903
2.19645
5.94339
3.71821
1.57311
0.947292
1.49044
1.46764
1.58484
1.85029
1.8257
2.00874
4.42645
3.86714
1.62149
0.515794
0.193126
0.176414
0.299107
0.221431
0.329015
0.965564
1.11029
1.26498
1.48807
1.53117
2.73809
7.75614
3.63265
2.33622
1.3886
4.06248
1.22625
2.2036
1.75228
2.61431
1.28426
0.969284
0.44968
0.725329
0.727497
0.195537
0.171451
0.154881
0.129329
0.134883
0.218366
0.44944
0.60109
0.507729
0.967993
1.81934
0.914892
4.92479
2.5283
2.00487
1.11831
1.14374
4.25673
2.62955
0.976852
1.09546
0.838971
1.14295
1.28255
1.18182
0.196411
0.170401
0.154171
0.136333
0.122625
0.219175
0.452848
0.856047
1.04349
0.646563
1.03378
1.47786
0.9497
1.06342
1.07519
2.29008
1.3988
1.3229
13.5488
2.85919
2.06867
1.87099
1.60359
1.47244
1.39565
0.196231
0.171167
0.152405
0.139177
0.124597
0.11236
0.212221
2.17246
0.903009
0.503292
1
3.55283
4.87867
0.943499
0.677413
0.630285
0.628669
1.03333
11.6477
2.77133
2.13458
1.89918
1.72594
1.60748
1.43058
0.196192
0.171367
0.152394
0.138038
0.127545
0.113566
0.107853
0.111549
0.134363
0.175107
0.223504
0.484575
0.524084
0.39496
0.410525
0.428058
0.847672
1.58465
1.96975
0.958204
0.633113
0.685808
0.741102
0.795479
0.836822
0.0369934
0.0411209
0.0439112
0.0464371
0.0590311
0.0740122
0.183228
0.369828
0.375504
0.383968
0.395735
0.412231
0.432571
0.460273
0.49738
0.545223
0.599842
0.655263
0.707167
0.752368
0.792003
0.823944
0.848197
0.8494
0.836223
0.0370907
0.0405592
0.0537562
0.0593277
0.163432
1.24454
2.10568
1.88172
1.21196
0.924096
0.791964
0.759161
0.75956
0.829956
0.981817
1.16246
1.34382
1.51159
1.62022
1.67104
1.7263
1.75825
1.76077
1.59921
1.48206
0.0373752
0.0413839
0.0529781
0.0710566
0.70852
3.72598
2.1674
0.98524
0.683901
0.754516
0.845404
0.849277
0.942263
1.04721
1.07868
1.08377
1.09371
1.09453
1.08842
1.0757
0.871462
0.640528
0.577744
0.0378288
0.047949
0.0549974
0.110883
0.352277
0.961965
0.347138
0.239217
0.403322
1.75267
0.503352
0.287234
0.194945
0.225839
0.327432
0.413856
0.464353
0.478329
0.428217
0.32945
0.294654
0.0378283
0.0427231
0.0571933
0.0793351
0.216365
1.62051
1.49478
1.09817
0.69252
0.509966
0.471583
3.93037
0.574011
0.365112
0.726714
0.971641
0.871663
0.717448
0.630127
0.519374
0.382835
0.319553
0.0379204
0.0428974
0.0606854
0.0890192
0.58542
1.94937
1.57474
0.706379
1.78618
2.09775
1.17289
0.792118
0.350581
0.220851
0.354923
0.600923
0.690821
0.6834
0.523704
0.367369
0.296588
0.0377323
0.0424063
0.0595878
0.093632
1.73956
0.288728
1.14409
0.827645
0.681657
0.434897
0.355213
0.369817
0.407581
0.456272
0.507174
0.539981
0.477498
0.361432
0.290706
0.0374244
0.0420996
0.0516755
0.0745286
0.278553
0.665829
0.664996
5.669
0.584564
1.19653
0.645778
0.338209
0.316401
0.392597
0.468409
0.521194
0.564701
0.577819
0.50936
0.366445
0.306372
0.0372155
0.0411354
0.0503844
0.06881
0.0863369
0.12256
0.389803
1.08453
1.30432
0.592539
0.334613
0.318428
0.39346
0.475792
0.539933
0.559682
0.587397
0.505597
0.362457
0.304703
0.0371052
0.0407912
0.0513088
0.0677163
0.101472
0.139371
0.299364
3.03681
4.03665
2.30768
0.948173
0.936437
1.31268
1.12934
0.986882
0.628156
0.463556
0.422908
0.450879
0.495283
0.544103
0.578007
0.503682
0.351122
0.296593
0.0370137
0.0406896
0.051069
0.0679361
0.228497
3.37587
1.65099
1.07811
0.685399
0.905793
0.764412
0.701241
0.656406
0.589611
0.516317
0.493616
0.490426
0.527506
0.446247
0.304057
0.266765
0.0369091
0.040497
0.050842
0.0674747
0.175549
0.705708
1.85509
1.42655
0.820243
1.92089
1.28966
1.95919
1.14646
0.502708
0.438844
0.353119
0.239365
0.233772
0.0368357
0.0407278
0.0489066
0.0681355
0.238765
0.232908
0.550281
2.15464
1.96454
1.40952
1.37429
1.77383
0.391361
2.57759
1.09247
0.87991
1.08888
0.320126
0.201928
0.224784
0.184403
0.0367237
0.0398059
0.0509111
0.0702405
0.322838
0.246721
0.244031
0.369821
0.615987
0.679601
0.694922
1.11218
2.26876
1.37512
2.11411
1.20819
0.357655
0.281095
4.35237
0.486767
0.592061
0.295653
0.132466
0.036164
0.0404282
0.0473375
0.0721366
0.393114
0.292211
0.270299
0.391303
0.515881
0.62944
0.721469
4.8827
2.31303
0.710367
0.340515
0.287903
0.509746
1.04766
1.60709
1.54673
0.941782
0.758174
0.383169
0.360352
0.0364447
0.0399095
0.0477705
0.0581711
0.172724
0.302401
0.272325
0.338558
0.450202
0.539814
0.666869
14.1917
2.9881
0.970628
0.942217
1.45525
1.5371
0.810078
0.68457
0.0367536
0.0399854
0.0412532
0.0419377
0.0556288
0.101456
0.210832
0.285286
0.278605
0.32864
0.504085
1.59369
0.160385
2.92099
3.92902
5.33123
1.76976
1.12945
0.988121
1.04792
1.16423
1.04339
0.0367708
0.0399425
0.041257
0.0413579
0.0413862
0.0521255
0.120842
2.15778
1.68102
1.07773
0.761555
0.625634
0.935146
10.2801
3.3969
3.23455
3.54578
5.40837
5.13434
2.7689
2.1504
1.80524
1.48107
0.0367876
0.0399611
0.0411893
0.0414552
0.0410426
0.0418056
0.0747277
8.61665
2.59924
1.1332
0.972716
2.61463
3.04249
1.18682
1.10028
0.988918
4.22515
8.80288
5.12544
2.39809
1.90135
1.61361
1.31461
0.0367813
0.039942
0.0412115
0.041443
0.0409956
0.040666
0.0443172
0.0626855
0.11226
0.202425
0.25748
0.333748
0.428757
0.372915
0.361795
0.360329
0.381484
0.655006
7.13499
1.49292
0.691874
0.630916
0.588412
0.574341
0.561407
0.0294884
0.0293393
0.0294089
0.0300712
0.0343427
0.0519017
0.169848
0.244559
0.285183
0.328535
0.366939
0.405201
0.442156
0.481965
0.527256
0.57866
0.632389
0.684771
0.73285
0.775146
0.812035
0.840337
0.857092
0.846892
0.827301
0.0295491
0.029367
0.0303433
0.0325285
0.103035
0.368162
0.443671
0.370117
0.447155
0.588457
0.698478
0.76517
0.829724
0.926347
1.05867
1.22912
1.38895
1.51633
1.61783
1.69595
1.75667
1.79761
1.77803
1.6134
1.46819
0.0296206
0.029474
0.0306189
0.0355786
0.278121
2.79053
1.34848
0.360722
0.186493
0.169372
0.18052
0.24118
0.353664
0.468909
0.633328
0.766625
0.84017
0.888102
0.935824
0.946838
0.948076
0.947986
0.730993
0.554589
0.556929
0.0296434
0.0295013
0.0305119
0.0356315
0.121213
1.94255
0.826182
0.235294
0.0977208
0.0719321
0.0897803
1.91336
0.964651
0.28974
0.130954
0.0925677
0.0700738
0.0662707
0.0772146
0.0977189
0.114888
0.126607
0.115361
0.122471
0.141754
0.0296884
0.029777
0.0320062
0.038061
0.176954
1.44383
0.873324
0.479708
0.55588
0.413683
0.203762
2.22099
1.52811
0.454259
0.146483
0.101242
0.0809439
0.0707466
0.0926461
0.126495
0.143827
0.148994
0.124097
0.106422
0.112554
0.0297047
0.0299672
0.0329213
0.0481846
1.09286
3.5485
3.06401
0.640389
0.345744
0.568217
0.295964
0.162381
0.123935
0.08511
0.0587593
0.0636854
0.101897
0.140262
0.155916
0.124766
0.103095
0.105749
0.0296525
0.0297963
0.0325916
0.0504832
7.24544
1.40654
1.78044
0.654502
0.410292
0.150232
0.0713304
0.0678204
0.0780104
0.0933961
0.110146
0.126498
0.116565
0.101839
0.10343
0.0295683
0.0296542
0.0309563
0.0378202
0.196496
0.523092
0.607883
3.97204
1.22811
1.42544
0.567198
0.154498
0.0736378
0.0836652
0.102567
0.114966
0.126613
0.136251
0.121593
0.1033
0.104886
0.0295598
0.0294428
0.0304585
0.0345413
0.0604002
0.0879965
0.543262
1.37906
1.69626
1.37023
0.444533
0.121129
0.0720435
0.0846441
0.105111
0.119937
0.132116
0.142646
0.119317
0.100768
0.102699
0.0295311
0.0293695
0.0302804
0.0347358
0.0751627
0.0797584
0.172891
2.82855
3.06868
1.34748
0.616276
0.922358
0.663285
0.656741
0.352802
0.134964
0.0792786
0.0781008
0.0888185
0.102276
0.115257
0.128348
0.114651
0.097094
0.0992519
0.0295207
0.0292914
0.030228
0.0365753
0.10177
0.134279
2.72619
9.56204
3.23605
1.80959
1.80314
1.01779
0.928688
1.05008
0.905274
0.659772
0.417933
0.225507
0.137193
0.114848
0.11128
0.113871
0.101521
0.085296
0.0901942
0.0295198
0.0292339
0.0300809
0.0402291
0.133012
0.135263
0.70876
3.62845
2.29912
1.56397
1.8483
3.30499
3.12285
3.47821
3.66084
3.32625
2.92808
0.940656
0.524614
0.30765
0.166645
0.0954899
0.0781099
0.0671055
0.0756055
0.0295393
0.0292697
0.0300803
0.0448702
0.165796
0.0940933
0.0864425
0.157106
0.415326
1.16618
5.35143
2.20561
0.605531
0.368638
0.343785
0.477001
0.706863
0.427242
0.526723
0.422733
0.187943
0.100547
0.0707885
0.053531
0.058469
0.0295544
0.0291452
0.0305282
0.0510044
0.211035
0.104367
0.0685901
0.0740643
0.115057
0.151615
0.37242
0.384729
0.576633
0.370495
0.347432
0.21044
0.129994
0.112805
0.543061
0.564432
0.455353
0.279546
0.104741
0.0837428
0.0908053
0.0295665
0.029264
0.030352
0.0585133
0.255355
0.121614
0.0745996
0.078095
0.098198
0.128088
0.160186
1.89945
2.51629
0.707201
0.184148
0.10575
0.0897092
0.0861157
0.142991
0.351608
0.298945
0.176397
0.169181
0.343899
0.370471
0.0294825
0.029109
0.0302967
0.0463464
0.206221
0.20202
0.118299
0.111902
0.129705
0.164762
0.233937
2.55332
2.63484
1.30376
0.781985
0.78583
0.65695
0.657251
0.762702
0.723918
0.626025
0.569201
0.609644
0.804318
0.789482
0.0294599
0.0291321
0.0289888
0.0311142
0.0539737
0.114262
0.173534
0.176062
0.185309
0.20396
0.2525
1.0055
4.76889
3.24734
1.82007
1.38152
1.20934
1.90394
2.51793
1.83439
1.36117
1.30525
1.22259
1.16595
1.07485
0.0294537
0.0291226
0.0287943
0.0288844
0.0314114
0.0425312
0.130905
0.836301
1.04304
0.796108
0.639826
0.544583
0.568253
0.582635
0.699154
1.17547
1.46712
2.7355
5.70865
2.64332
2.2684
1.91607
1.76313
1.6356
1.40863
0.0294612
0.0291189
0.028867
0.0283956
0.0286636
0.0309555
0.0596052
12.8471
2.37777
0.902781
0.876529
0.846
0.921083
0.891671
0.644763
0.64025
0.76569
1.84209
4.13179
2.36419
1.64509
1.57642
1.4715
1.36375
1.20753
0.0294643
0.0291114
0.0288799
0.0283367
0.0282918
0.0288178
0.0321805
0.0546728
0.111491
0.204278
0.281917
0.334933
0.354867
0.352614
0.346451
0.336935
0.37047
0.448495
0.575877
0.637082
0.454499
0.458433
0.465391
0.497889
0.501334
0.02919
0.0281699
0.0267691
0.026766
0.0307963
0.0460821
0.0792689
0.140454
0.213042
0.295922
0.374477
0.435622
0.483076
0.532189
0.584208
0.638768
0.69268
0.743022
0.788032
0.826719
0.859491
0.884164
0.895649
0.877555
0.853234
0.0292462
0.0281133
0.0272794
0.0279405
0.0429077
0.124248
0.155237
0.176993
0.304841
0.49433
0.670939
0.804696
0.919125
1.04381
1.17635
1.34047
1.4856
1.59688
1.68232
1.74546
1.79162
1.81886
1.78789
1.6048
1.47029
0.0293099
0.0280639
0.027461
0.0296619
0.0734819
0.212409
0.206972
0.112369
0.103486
0.136292
0.176194
0.21794
0.294289
0.417837
0.574776
0.704793
0.775706
0.822895
0.864444
0.871598
0.871884
0.867037
0.662708
0.522532
0.542891
0.0293626
0.0280453
0.0276816
0.0295301
0.0520423
0.117928
0.129072
0.0780055
0.0553844
0.048449
0.0460836
0.100004
0.147112
0.0846361
0.0584947
0.0493478
0.0428299
0.0409367
0.0413571
0.0428204
0.0439323
0.0456854
0.0470275
0.0657721
0.0851366
0.0293983
0.0280571
0.0280919
0.0306263
0.0607509
0.222113
0.21611
0.210242
0.417076
0.302226
0.119648
0.150744
0.253613
0.113653
0.0551158
0.041951
0.035597
0.0309819
0.0305924
0.0329248
0.0352043
0.0365415
0.0354197
0.0388348
0.0435507
0.0293773
0.0281122
0.0286107
0.0344035
0.269422
1.23003
0.641149
2.01795
4.56582
2.78274
0.508584
0.149022
0.142897
0.112179
0.0710348
0.0472758
0.0358978
0.0302939
0.0293772
0.0319102
0.0349869
0.0369882
0.0354262
0.036027
0.0405497
0.0293575
0.0280624
0.0285002
0.0345454
0.322316
1.02393
0.639953
1.32392
0.840561
0.52773
0.33881
0.114911
0.0389211
0.029996
0.0300823
0.0315629
0.0331739
0.0348422
0.0347556
0.0362082
0.0394361
0.0293099
0.0280536
0.0279141
0.0303676
0.0587035
0.169591
0.592298
2.53101
1.91701
1.57253
0.56453
0.145466
0.0401965
0.0313824
0.0321479
0.033284
0.0343953
0.0353349
0.0349531
0.0356872
0.0398499
0.0292818
0.0280835
0.0275302
0.0292454
0.0544155
0.0788595
0.699322
2.89807
2.5814
1.54048
0.461962
0.106763
0.0359186
0.0311937
0.0323755
0.0336118
0.0347893
0.0360108
0.034697
0.0353193
0.0394267
0.0293125
0.0279884
0.0273729
0.0300773
0.0673925
0.0663169
0.14385
2.31626
2.31359
0.91836
0.465061
0.780345
0.624682
0.566835
0.237091
0.0727148
0.0355766
0.0316852
0.0317954
0.0326714
0.0338234
0.0347372
0.0342945
0.0349285
0.038678
0.0293354
0.0278445
0.0274296
0.0331362
0.0872029
0.071715
0.346153
1.9855
0.801339
0.302613
0.127576
0.112667
0.150328
0.189658
0.189862
0.156438
0.114952
0.0809656
0.0542863
0.0411295
0.0361565
0.0348071
0.033634
0.0336918
0.0373736
0.0291697
0.027843
0.0276876
0.0391584
0.11324
0.0719205
0.100065
0.637558
0.430699
0.167283
0.17464
0.295407
0.230619
0.211234
0.265274
0.308752
0.303968
0.227328
0.157265
0.109136
0.0614309
0.0394251
0.0342369
0.0324171
0.0350878
0.0292801
0.0278515
0.0278673
0.0469407
0.140277
0.0740717
0.0442154
0.0505051
0.0901835
0.113249
0.440888
0.413753
0.220646
0.110843
0.0937831
0.108029
0.128591
0.111913
0.103922
0.106512
0.0664507
0.0444197
0.0365013
0.0344968
0.0367902
0.0291523
0.0280403
0.0282451
0.0570912
0.178008
0.0847164
0.0423052
0.0352461
0.0408009
0.0507925
0.0862421
0.136339
0.14251
0.092378
0.0717458
0.0612263
0.0498801
0.0459885
0.0550112
0.0849762
0.0658498
0.0572498
0.044987
0.0782405
0.0945854
0.0292924
0.0279643
0.0286024
0.0685146
0.219969
0.0992601
0.048078
0.0377797
0.038848
0.0446302
0.0537096
0.17211
0.582625
0.243193
0.0834521
0.0587211
0.0592129
0.06255
0.0733461
0.101318
0.111165
0.108133
0.194936
0.431251
0.459634
0.029139
0.0278664
0.0281489
0.0435586
0.207076
0.176534
0.0924071
0.0713787
0.0709201
0.089106
0.135621
0.389076
0.708984
0.665081
0.598217
0.596194
0.622415
0.663779
0.75565
0.758253
0.736475
0.732302
0.874911
0.895553
0.888308
0.0293155
0.0278065
0.0269503
0.0298929
0.0575341
0.123956
0.151815
0.144695
0.143175
0.156579
0.192061
0.282138
0.408733
0.487629
0.715276
0.874571
0.86543
1.05724
1.31932
1.27066
1.15819
1.07072
1.05264
1.05267
1.03105
0.0292206
0.0280958
0.0265808
0.0266021
0.0301782
0.0446817
0.0972315
0.242631
0.324868
0.298557
0.314505
0.353145
0.382181
0.393641
0.411181
0.484805
0.615604
1.12552
1.62954
1.30794
1.26397
1.25351
1.25117
1.23019
1.17696
0.0292194
0.0280862
0.0268978
0.0258175
0.0261574
0.0291121
0.0432533
0.178428
0.325158
0.376171
0.422114
0.433087
0.430145
0.416415
0.410685
0.425107
0.443487
0.698204
1.05307
0.840435
0.875196
0.939318
0.953981
0.967683
0.932281
0.0292451
0.0280296
0.0270361
0.0257433
0.0255651
0.0260721
0.0290387
0.0412101
0.0906733
0.170627
0.249688
0.307129
0.320491
0.322274
0.317285
0.299771
0.288387
0.292078
0.293527
0.29736
0.305318
0.315263
0.329747
0.376589
0.403463
0.0291407
0.0281753
0.0263792
0.0256643
0.0285012
0.0381255
0.0550985
0.108814
0.189287
0.28292
0.382935
0.465299
0.527188
0.58237
0.638491
0.694691
0.74858
0.797432
0.839686
0.874702
0.90333
0.924808
0.930173
0.90581
0.878299
0.0292169
0.0280798
0.0268001
0.0267532
0.0377135
0.0816014
0.0979483
0.140339
0.27654
0.472661
0.676165
0.853614
1.00897
1.14313
1.28437
1.43693
1.5669
1.66184
1.73116
1.77813
1.8105
1.82502
1.78326
1.58939
1.46414
0.0292771
0.0280218
0.0268652
0.0284777
0.0602178
0.0666785
0.0593922
0.06223
0.0920423
0.145349
0.207463
0.266655
0.34319
0.457024
0.587725
0.699162
0.765377
0.800678
0.835008
0.836476
0.837144
0.83123
0.636292
0.507484
0.534987
0.0293373
0.0279805
0.027088
0.0283698
0.0468642
0.0491873
0.0448617
0.0404679
0.0398276
0.0404776
0.0375447
0.0379044
0.0430535
0.0406415
0.0393687
0.0377197
0.0367301
0.0365024
0.0364004
0.0360437
0.0361565
0.036153
0.0388417
0.0558101
0.0743236
0.0293981
0.0279195
0.0273486
0.0286522
0.0451584
0.0604777
0.069808
0.0973352
0.248671
0.178845
0.0848222
0.0553526
0.0534575
0.0428848
0.0339978
0.0297166
0.0273137
0.0259178
0.0253485
0.0252478
0.025351
0.025483
0.0253262
0.0264171
0.0286167
0.0294193
0.0278797
0.0276956
0.0295932
0.053816
0.144422
0.197094
2.22326
3.96586
1.44922
0.380407
0.121895
0.0877241
0.0738068
0.0528617
0.0353387
0.0280175
0.0259038
0.0252571
0.0251547
0.0253074
0.0254407
0.0251645
0.0247451
0.0253824
0.0293629
0.0279394
0.0276353
0.0293584
0.0532572
0.142874
0.385093
2.24817
0.668605
0.506791
0.307312
0.108691
0.0352399
0.026023
0.0252135
0.0251284
0.0251688
0.0253224
0.0251196
0.0245967
0.0249817
0.0292808
0.0280412
0.0272185
0.0281391
0.0451981
0.0819192
0.544754
3.29384
2.57336
1.31803
0.495719
0.143668
0.0372137
0.0261055
0.0252806
0.0252259
0.0252334
0.0253136
0.0250761
0.0245453
0.0249751
0.0292664
0.0280484
0.0269295
0.0282007
0.0524133
0.0755102
0.657029
4.92635
2.89843
1.28002
0.428674
0.106591
0.0325963
0.0257815
0.025257
0.0251865
0.0252896
0.025343
0.0250684
0.0245119
0.0249253
0.0293047
0.0279129
0.0268703
0.0294046
0.0650575
0.0627509
0.145031
1.78226
1.78164
0.713925
0.405973
0.503856
0.624452
0.543915
0.226426
0.0636195
0.029575
0.0259708
0.025417
0.0251773
0.02524
0.025357
0.0250435
0.0245384
0.024905
0.0291927
0.0278021
0.0269968
0.0328929
0.0830248
0.0623556
0.0600551
0.180527
0.223399
0.134
0.0701596
0.0645385
0.0822292
0.0797007
0.0597111
0.0448887
0.0382972
0.0344169
0.030281
0.0272729
0.0259776
0.0255825
0.0252217
0.0245755
0.0248939
0.029084
0.027731
0.0273034
0.0394489
0.106968
0.0665194
0.0476943
0.0811317
0.0975157
0.0635025
0.0556796
0.0692542
0.0641512
0.0530183
0.0515688
0.0561539
0.0576075
0.0523495
0.0444159
0.0369204
0.030583
0.0272223
0.0259378
0.0249933
0.0253474
0.0294314
0.0276248
0.0276204
0.0487367
0.133895
0.0723298
0.038582
0.0339247
0.0405688
0.0446733
0.057582
0.0797505
0.0642545
0.0445802
0.0384929
0.0395518
0.041189
0.0399547
0.0381876
0.0371441
0.0322144
0.0284973
0.0268326
0.02903
0.0318696
0.0293454
0.0278162
0.028028
0.0625033
0.169559
0.0822475
0.0410406
0.0313104
0.0322855
0.0347084
0.038508
0.0510328
0.0504003
0.0397262
0.033464
0.0312066
0.0299153
0.0293292
0.0298127
0.0327985
0.0313541
0.0302105
0.0332563
0.0846254
0.1087
0.0292351
0.0279034
0.0285746
0.0765698
0.213503
0.095631
0.0459928
0.0348878
0.0341171
0.0356377
0.0386097
0.0530246
0.097996
0.0740358
0.0545084
0.0553469
0.0641056
0.0741778
0.0866959
0.102383
0.11723
0.130421
0.255711
0.526558
0.552752
0.0290383
0.0278063
0.0280624
0.0442459
0.211886
0.173194
0.0894967
0.0658477
0.0624441
0.0757742
0.116613
0.207121
0.34546
0.428969
0.500441
0.593829
0.669913
0.739085
0.824376
0.86842
0.882033
0.90577
0.978847
0.979582
0.980201
0.0293234
0.0276888
0.0267298
0.0301309
0.0594647
0.129452
0.149269
0.146359
0.12392
0.131878
0.154813
0.210913
0.287175
0.351092
0.41457
0.505206
0.585169
0.719778
0.852194
0.911713
0.912937
0.905662
0.914474
0.935756
0.950642
0.0292233
0.0280345
0.0262681
0.0263112
0.0303864
0.0458851
0.0874261
0.153973
0.185216
0.188927
0.198485
0.224011
0.252983
0.285938
0.30993
0.354771
0.403874
0.548514
0.702152
0.790931
0.834272
0.863049
0.885995
0.908468
0.907492
0.0292086
0.0280404
0.0266442
0.0253798
0.0257734
0.0288041
0.0398654
0.0763229
0.163769
0.229916
0.271548
0.292005
0.298957
0.296756
0.297031
0.307601
0.318004
0.366987
0.437253
0.489471
0.530976
0.575324
0.604847
0.655736
0.661608
0.0292404
0.0279666
0.026829
0.0252843
0.0250647
0.0256589
0.0284186
0.0374213
0.0735931
0.144147
0.215657
0.266347
0.280306
0.282952
0.274703
0.254604
0.239102
0.23297
0.229906
0.227103
0.227445
0.229716
0.234741
0.253737
0.282088
0.0291269
0.0281714
0.0263729
0.0253333
0.0274691
0.0357152
0.0502816
0.100883
0.187353
0.286551
0.395818
0.487486
0.560615
0.623368
0.684052
0.742577
0.796625
0.844345
0.884559
0.916864
0.941771
0.957963
0.960398
0.931856
0.901722
0.029203
0.0280858
0.0267483
0.0264392
0.0356565
0.0731982
0.0877309
0.136318
0.275855
0.474818
0.690814
0.892962
1.07813
1.22791
1.37127
1.51356
1.62965
1.7136
1.77201
1.80757
1.82724
1.83156
1.78783
1.57401
1.46276
0.0292599
0.0280307
0.0267621
0.0281986
0.0567392
0.0551807
0.0441381
0.0532127
0.0893741
0.151148
0.229438
0.308868
0.395994
0.502375
0.611885
0.704729
0.76133
0.791579
0.819533
0.821735
0.81972
0.811989
0.623484
0.49906
0.530022
0.0292969
0.0280142
0.0269564
0.0280956
0.0457306
0.0437924
0.0340395
0.031757
0.0326402
0.0352464
0.034105
0.0327459
0.0324684
0.0335365
0.0348264
0.0349363
0.0352627
0.0354646
0.0355168
0.0353887
0.0354762
0.035309
0.0374774
0.0544498
0.0729241
0.0293324
0.0280014
0.0271155
0.0279971
0.0411686
0.0423061
0.0401465
0.052325
0.112568
0.100662
0.0609692
0.0408002
0.0341027
0.0317634
0.0294284
0.0274073
0.0260486
0.0253218
0.0249204
0.0246812
0.0245839
0.0245889
0.0243175
0.0246115
0.026017
0.0293409
0.0280113
0.0272764
0.0280918
0.0399378
0.0514568
0.0810677
1.60174
3.41241
1.05977
0.296993
0.116813
0.0826201
0.0626605
0.0441915
0.0316626
0.0266585
0.0253691
0.0249139
0.024647
0.0245538
0.0245533
0.0242662
0.0232152
0.022565
0.0292911
0.0280593
0.0272439
0.0278197
0.0393225
0.0591951
0.231523
4.35791
1.32887
0.573797
0.236836
0.0818396
0.0319447
0.0255457
0.0248521
0.0246187
0.0244986
0.0245041
0.0242269
0.0231819
0.0222047
0.0292413
0.0281067
0.0270181
0.0274328
0.0421566
0.0648665
0.422993
8.35033
3.09093
0.613547
0.251825
0.0911683
0.0331078
0.0255984
0.0248075
0.0245842
0.024545
0.024488
0.0241966
0.0231949
0.0221723
0.0292629
0.0280415
0.0268226
0.0278998
0.0509536
0.0687424
0.515202
2.77853
1.83925
0.56963
0.226689
0.0737507
0.0303625
0.0253824
0.0247767
0.0245241
0.024541
0.0244758
0.0242485
0.0232181
0.0221981
0.0293003
0.0279098
0.0268227
0.0293202
0.0637601
0.0589943
0.099494
1.19805
1.16438
0.461745
0.354712
0.573428
0.588248
0.343205
0.146855
0.049958
0.0279353
0.0252852
0.0247937
0.0245448
0.0245125
0.0245521
0.0242613
0.0232718
0.0222816
0.0291447
0.0278119
0.0269762
0.0326375
0.0810719
0.0601026
0.0438941
0.0548753
0.0955318
0.0772347
0.0531084
0.0524811
0.0633224
0.057271
0.0411149
0.0306775
0.0272638
0.0262148
0.0254896
0.0248505
0.0246196
0.0246252
0.0243483
0.0233745
0.0224793
0.0290872
0.0277284
0.0273139
0.0387083
0.104257
0.0661279
0.0391269
0.0365765
0.0408875
0.0397402
0.0360441
0.0356787
0.0356354
0.0330907
0.0305774
0.0293529
0.028718
0.0282213
0.0272696
0.0260585
0.0253467
0.0250232
0.0245543
0.0235177
0.0234363
0.0294358
0.027637
0.0276546
0.0491132
0.131797
0.0729136
0.0385897
0.0306049
0.0318521
0.0339883
0.0339243
0.035301
0.0342381
0.0310085
0.028555
0.0277108
0.0273325
0.0270906
0.026648
0.0261209
0.0257016
0.0252617
0.024807
0.028146
0.031856
0.029293
0.0278776
0.0281126
0.0654616
0.168759
0.0832405
0.041638
0.0314102
0.0314111
0.0324147
0.0325636
0.03395
0.0327806
0.0296794
0.0275822
0.0267143
0.0263682
0.0261852
0.0260653
0.026299
0.02642
0.0264815
0.0321031
0.094752
0.124338
0.0292961
0.0279063
0.0286884
0.080861
0.216552
0.0966421
0.0463839
0.0351407
0.0339724
0.0343945
0.0352141
0.0381663
0.043933
0.0462677
0.0505604
0.060102
0.0732798
0.0882533
0.106028
0.126207
0.146038
0.164982
0.315746
0.608415
0.634255
0.0290634
0.0278007
0.0280922
0.04532
0.218446
0.175892
0.0900373
0.0647565
0.0598382
0.0694909
0.10449
0.171351
0.267513
0.368002
0.483732
0.611826
0.726123
0.823182
0.912318
0.975817
1.01548
1.04784
1.06201
1.05895
1.05847
0.0292944
0.0277069
0.0268043
0.030529
0.0595344
0.135737
0.152175
0.143807
0.126505
0.126606
0.143744
0.188929
0.252158
0.312069
0.367405
0.433608
0.493472
0.57466
0.668789
0.73457
0.773371
0.789316
0.816629
0.841362
0.879849
0.0292308
0.028025
0.0262544
0.0263963
0.0308932
0.0477385
0.0928673
0.144825
0.163382
0.166384
0.171854
0.185181
0.19923
0.226288
0.254595
0.292075
0.322448
0.381122
0.462187
0.5278
0.574491
0.604055
0.632492
0.653447
0.68468
0.0292
0.0280558
0.0265986
0.0253546
0.0258568
0.0292488
0.0409625
0.0765157
0.13981
0.193727
0.224515
0.235255
0.238517
0.238555
0.23888
0.241366
0.246202
0.25804
0.286749
0.31262
0.334789
0.354937
0.374313
0.399752
0.429369
0.0292307
0.0279821
0.0268151
0.0252428
0.0250673
0.025814
0.0290318
0.0385818
0.0739335
0.139319
0.203991
0.243083
0.255452
0.25639
0.243563
0.220603
0.196937
0.182267
0.177917
0.168805
0.169702
0.167752
0.167901
0.169127
0.182741
0.0291252
0.0281615
0.0264354
0.0252161
0.0271327
0.0352542
0.0500099
0.102157
0.196233
0.301239
0.413363
0.512476
0.593144
0.660473
0.724821
0.786293
0.841495
0.888683
0.927549
0.958116
0.980703
0.993636
0.992998
0.96088
0.92814
0.0291991
0.0280715
0.0267155
0.0263297
0.0350558
0.0713713
0.0872182
0.141925
0.285121
0.485462
0.706819
0.922782
1.12833
1.29455
1.43485
1.57953
1.68478
1.76179
1.81093
1.83881
1.8511
1.84552
1.79799
1.57168
1.47451
0.0292557
0.0280059
0.0267125
0.0281585
0.0563894
0.0545156
0.0433703
0.0524166
0.08875
0.153242
0.239385
0.331845
0.43034
0.532865
0.630021
0.709177
0.753926
0.786171
0.808673
0.809039
0.80821
0.799118
0.612923
0.491624
0.527933
0.0292699
0.0280213
0.0268895
0.0279809
0.0456263
0.043577
0.0331942
0.0294669
0.03013
0.0324946
0.0325763
0.0316959
0.0315671
0.0326802
0.0336967
0.0342775
0.034732
0.0350428
0.0351585
0.03538
0.0353308
0.0351971
0.0376814
0.0554797
0.074632
0.0292798
0.0280436
0.0270056
0.0277434
0.0402865
0.0406024
0.0340371
0.0359027
0.0517408
0.0570555
0.0442429
0.0347881
0.030695
0.02934
0.0280657
0.026819
0.0258994
0.0253108
0.0249591
0.0246736
0.0246243
0.0246514
0.0244582
0.0253922
0.0269615
0.0292655
0.0280822
0.0270984
0.0275446
0.0377407
0.0431643
0.0510214
0.369611
1.05906
0.401173
0.132136
0.0660727
0.053524
0.0446656
0.0350127
0.0287818
0.0261967
0.0253261
0.0249285
0.0246428
0.0245609
0.0245879
0.0243846
0.0236226
0.0233302
0.0292369
0.0281061
0.0270902
0.0273254
0.0373214
0.0495479
0.110297
3.77431
4.54673
1.30268
0.320559
0.181048
0.185434
0.127366
0.0799038
0.0430224
0.0280973
0.0253987
0.0249102
0.0246656
0.0245624
0.0245753
0.0243647
0.0236787
0.0229792
0.029222
0.028109
0.0269401
0.0272509
0.0412425
0.0574253
0.192219
5.21354
4.94476
1.25951
0.322212
0.189871
0.245436
0.166616
0.0921011
0.0464434
0.0286371
0.0254098
0.0248685
0.0246584
0.0245826
0.0245449
0.024336
0.0237186
0.0229323
0.0292622
0.0280196
0.0267915
0.0278242
0.0502251
0.061066
0.216793
5.69825
3.29913
0.874461
0.266469
0.214089
0.249827
0.161781
0.0877847
0.0427767
0.027807
0.0253353
0.0248729
0.0246399
0.0246012
0.0245525
0.0243766
0.0237555
0.0229694
0.0293076
0.02788
0.0268236
0.0293251
0.0629692
0.0563302
0.0620074
0.317136
0.457029
0.20117
0.102595
0.13583
0.153413
0.108944
0.063256
0.0350698
0.0267444
0.0252395
0.0247978
0.0246182
0.0245585
0.0246253
0.0243937
0.0238027
0.0230644
0.0291714
0.0277763
0.0269879
0.0325143
0.0800706
0.059614
0.0388256
0.0390529
0.0514356
0.0502327
0.0409663
0.0408777
0.0453721
0.0413947
0.0334665
0.0280595
0.025983
0.0252389
0.0248631
0.0246033
0.0245747
0.0246475
0.0244586
0.0238385
0.0232925
0.0290891
0.0277337
0.0273736
0.0384156
0.103021
0.0664459
0.0378061
0.031062
0.031759
0.0337843
0.0324957
0.0314813
0.0311185
0.0299004
0.0282031
0.0267591
0.0258829
0.0254324
0.0250626
0.0247838
0.0247157
0.0247577
0.0245669
0.0242594
0.0243147
0.0294203
0.0276655
0.0277107
0.0496117
0.131998
0.0740704
0.0395724
0.0300764
0.0303202
0.0318457
0.031301
0.0304775
0.029806
0.0286073
0.0272859
0.0263538
0.0257705
0.0254041
0.0250453
0.0248043
0.024821
0.0248555
0.0246504
0.0294701
0.0343035
0.0291577
0.0279961