/*--------------------------------*- C++ -*----------------------------------*\
  =========                 |
  \\      /  F ield         | OpenFOAM: The Open Source CFD Toolbox
   \\    /   O peration     | Website:  https://openfoam.org
    \\  /    A nd           | Version:  6
     \\/     M anipulation  |
\*---------------------------------------------------------------------------*/
FoamFile
{
    version     2.0;
    format      ascii;
    class       volScalarField;
    location    "20";
    object      k;
}
// * * * * * * * * * * * * * * * * * * * * * * * * * * * * * * * * * * * * * //

dimensions      [0 2 -2 0 0 0 0];

internalField   nonuniform List<scalar> 
230684
(
1.43153
1.30674
1.21722
1.13027
1.03672
0.920462
1.0016
2.74641
2.96886
3.10461
3.20134
3.33426
3.40076
3.49977
3.6346
3.82534
4.05739
4.2966
4.52511
4.72654
4.90227
5.04012
5.16485
5.19419
5.16106
1.41839
1.32976
1.19294
1.03538
0.865305
1.15046
1.44639
1.91015
1.9931
2.08876
2.24511
2.5075
2.81207
3.34093
3.88737
4.5284
5.15426
5.52676
5.61987
5.67026
5.7539
5.88298
5.78664
8.00439
6.88027
1.42176
1.32274
1.21644
0.946007
1.04861
2.98151
1.68487
2.64644
2.77473
2.60602
2.41593
2.36365
2.36275
2.49975
2.83676
3.25851
3.37513
3.31714
3.22984
3.14398
3.07234
3.01544
3.78036
4.0786
3.46458
1.40689
1.30498
1.11033
0.873749
0.672642
3.0665
2.61906
2.77106
2.51897
2.30808
2.1436
3.33764
1.9709
1.43731
1.39154
1.78761
1.66885
1.82229
1.96506
2.01656
1.99838
1.9582
2.69236
3.05272
2.51056
1.42114
1.32397
1.20386
0.917445
0.714375
1.14783
1.43353
1.93373
2.66447
2.83337
2.51345
2.63494
1.99228
1.44206
1.78597
3.32663
2.78233
2.64282
2.51806
2.40714
2.29398
2.17629
2.98885
3.22144
2.66406
1.42164
1.32384
1.20346
0.869445
0.543399
1.9812
1.17098
1.1112
1.76332
1.9509
2.23656
2.29509
2.34495
2.22662
2.29423
2.51375
1.78804
1.62536
1.83588
2.03352
2.10546
2.16924
2.97314
3.11182
2.6013
1.42234
1.32357
1.20505
0.868332
1.69851
1.73977
1.06555
0.898604
0.899841
0.901394
0.863648
0.982801
1.03276
1.59095
1.35242
1.61022
1.96186
2.08692
2.08488
2.05731
2.03871
2.02709
2.88567
3.11319
2.60581
1.42263
1.32288
1.21375
0.928945
0.708669
0.890896
1.05573
4.40641
2.77831
1.32915
1.14771
1.07338
1.17286
3.5417
2.31143
1.84527
1.57707
1.61547
1.7449
1.86505
1.95538
2.02406
2.93075
3.25495
2.65348
1.42291
1.32244
1.21791
0.954016
0.716347
0.817066
1.30028
5.46473
2.5507
1.32327
1.15253
1.05651
3.44791
3.01785
2.36786
1.7712
1.44896
1.46263
1.60076
1.77158
1.88404
1.99941
2.868
3.27691
2.67142
1.42269
1.3225
1.2194
0.958476
0.728899
0.901474
1.28527
2.10553
3.31774
1.79934
1.80583
1.3046
2.16975
2.07224
2.54985
2.84734
2.67133
2.36109
2.1484
2.04651
2.04694
2.09184
2.94459
3.22638
2.67573
1.42286
1.32266
1.22105
0.958645
0.721296
0.989952
1.31252
3.06786
1.45182
1.2603
1.33303
1.35694
1.27844
1.39581
1.77718
1.89173
1.79764
1.82698
1.84639
1.88053
1.98619
2.07062
2.93337
3.10929
2.48077
1.42273
1.32377
1.22386
0.975263
0.795993
1.2201
1.39801
1.52538
1.8366
1.20536
1.05239
0.991074
0.816879
1.03607
1.04538
0.961109
1.05006
1.90297
1.57567
1.28309
1.34008
1.63881
2.20247
2.69933
2.23396
1.42241
1.32442
1.22531
0.983313
0.89198
1.42003
1.52333
2.55454
1.81896
1.38352
1.27022
1.1567
3.8892
2.02722
1.60947
1.32757
1.58981
1.0325
3.63536
2.36537
1.78244
2.60777
2.97101
2.46376
2.1612
1.42239
1.32391
1.2241
0.980261
1.01924
1.89185
2.08748
2.14138
2.18928
2.13154
2.22235
2.14053
2.02294
2.07591
2.16013
1.24755
1.39415
1.69179
1.9524
2.50784
2.9155
1.74449
1.24648
1.68068
1.78474
1.42069
1.3245
1.22064
0.957397
1.17475
2.44217
2.40073
2.43338
2.61268
2.75353
2.73555
4.71882
2.2625
1.21815
1.45379
2.04687
2.02842
2.13413
2.26048
2.30062
2.38539
2.60355
2.32972
2.29053
2.64865
1.41554
1.336
1.18611
0.980386
1.13224
2.3688
2.80344
2.96935
3.35001
3.40836
3.19497
3.03188
2.20578
1.39494
1.66776
3.14765
1.66027
4.37883
2.26155
2.02011
1.2919
1.0216
0.905685
3.375
3.38139
1.43132
1.3027
1.22802
1.08409
1.07653
1.38958
1.4114
1.75797
2.64663
2.53951
2.45453
1.50408
2.56042
1.5663
1.32228
1.44164
1.39921
4.38435
2.00715
1.56669
1.06069
1.30624
2.78992
5.01261
4.70317
1.43351
1.30317
1.21627
1.1238
1.05576
0.941862
0.932921
1.32988
2.64303
3.03032
2.64758
2.13227
1.58415
1.49973
1.5329
2.36675
2.04692
1.9809
6.4409
3.41409
1.63573
6.72693
6.09836
5.64403
5.38525
1.43157
1.30914
1.20777
1.13581
1.06062
0.996266
0.909743
2.35883
2.37046
2.53419
2.42785
3.68372
3.46808
2.57819
2.03077
1.91808
1.91343
1.63895
5.55338
3.35332
4.25694
6.47264
6.16399
5.91261
5.46158
1.43157
1.30944
1.21057
1.12885
1.07242
1.00388
0.941966
0.942457
1.02237
1.19549
1.42676
1.52488
1.65486
2.23148
2.28174
2.33744
2.2948
2.23339
2.54635
2.53526
3.02099
3.25561
3.39278
3.52656
3.63584
1.47357
1.42872
1.3628
1.30732
1.30872
1.37695
3.15824
4.87479
5.1154
5.43258
5.7963
6.18489
6.57036
6.96818
7.44713
8.00069
8.59714
9.14702
9.63734
10.0255
10.27
10.3828
10.516
10.2144
9.94015
1.47411
1.42733
1.37019
1.27961
1.6921
2.7909
2.77136
5.27602
5.61597
5.95074
6.73462
7.43651
8.13832
9.09624
10.5002
12.0214
13.2548
14.1057
14.5454
14.4309
14.7013
14.94
14.6114
14.4389
13.0774
1.47449
1.42804
1.36612
1.25752
3.6473
8.73251
6.31879
3.7775
3.79269
4.99933
5.60647
6.71678
8.39881
9.3179
9.5752
9.55489
9.50816
9.47437
9.3977
9.27096
7.99912
6.46989
6.22074
1.4679
1.43007
1.33322
1.33702
2.46592
3.89731
2.90233
2.77854
3.74266
3.40896
3.22942
2.55352
2.23308
2.5788
3.38559
3.93809
4.12144
4.20435
3.93528
3.4416
3.20739
1.47695
1.42507
1.3613
1.24014
1.94114
4.84122
5.8871
6.31439
5.47804
4.75915
4.50824
5.81567
2.73585
2.53627
3.97656
5.19911
5.34826
5.04551
4.74133
4.34096
3.60503
3.16243
1.47794
1.42316
1.37582
1.33028
2.12547
5.76129
6.60913
4.88705
6.04721
4.93802
3.8263
2.8262
2.12021
2.07849
3.14253
4.48885
4.94655
4.93885
4.3569
3.49079
3.0631
1.47763
1.42227
1.37713
1.3814
3.89108
0.528553
1.91159
3.58426
4.37971
3.61807
3.37439
3.58056
3.79903
4.02895
4.27815
4.45927
4.23886
3.49496
3.05339
1.47519
1.42586
1.36711
1.26272
2.05085
3.20795
3.22737
3.83781
3.1523
6.11294
4.28355
2.96791
3.07792
3.67868
4.07202
4.33736
4.50763
4.56348
4.37921
3.58076
3.13112
1.47405
1.42753
1.3644
1.23135
1.64794
2.43262
4.68772
6.19377
7.35478
4.45799
2.93104
2.98686
3.60643
4.05593
4.38648
4.52164
4.63964
4.32125
3.55732
3.16202
1.47402
1.42758
1.36373
1.23331
1.94814
2.64019
3.51958
11.6727
7.2351
6.82332
3.45444
1.38874
2.81738
6.18148
6.47303
4.7986
3.94514
3.76581
3.93466
4.16484
4.44015
4.59719
4.29046
3.57215
3.12318
1.47437
1.42863
1.36373
1.25244
2.74583
4.0303
5.55101
1.50825
2.09733
4.25717
4.19055
4.27284
4.42529
4.31734
4.01002
4.0193
4.2111
4.44335
4.05971
3.21845
2.95791
1.47516
1.42804
1.35988
1.27932
3.01878
3.81195
4.22008
3.0962
1.17095
2.46538
3.71024
4.39469
2.82554
2.71461
3.2987
2.91204
2.39793
2.41849
1.47628
1.42825
1.3592
1.32126
3.77849
3.43913
3.18281
6.63651
2.63587
4.70881
4.6719
2.5545
1.0327
3.88802
3.12393
0.856199
1.9804
1.96497
1.87876
2.05356
2.04746
1.47559
1.4278
1.35469
1.37266
4.61391
3.82908
3.50615
3.89819
4.34953
4.33067
4.06759
4.87668
3.52971
4.23838
3.93215
1.63964
2.54342
2.44564
6.7855
1.57029
2.17946
1.74268
1.83252
1.46705
1.42538
1.34698
1.46542
5.23531
4.22226
3.7043
4.27323
4.84332
5.32109
5.47989
12.6075
3.79266
2.0975
2.12497
2.24446
3.40985
5.53046
5.54674
4.42859
1.88904
2.70269
2.37236
4.67697
1.47306
1.42615
1.34737
1.40718
3.34619
4.69463
3.97717
4.08726
4.52011
4.852
5.28681
7.94864
4.64054
3.88724
4.91431
4.7949
3.74972
8.20983
8.13971
1.47309
1.43161
1.35165
1.31077
1.54877
2.41935
3.54321
4.0153
3.83707
3.93104
4.61054
5.88555
0.411988
1.82493
15.1268
6.6847
6.20407
6.09784
7.57698
9.68786
11.4232
10.9276
1.4756
1.42517
1.37215
1.29776
1.26222
1.3639
2.36374
5.42767
5.22873
4.87146
4.38391
4.08834
3.97355
5.67642
5.17314
5.08876
14.157
10.0759
10.6509
16.3367
14.9733
14.168
12.9209
1.47781
1.42261
1.36907
1.31761
1.2404
1.23058
1.43637
6.42735
5.70833
4.78708
4.98166
7.37012
7.70304
6.88367
6.80133
7.05077
14.4911
14.1273
17.0718
14.4278
13.413
12.5735
11.7584
1.47856
1.42194
1.36892
1.31724
1.25214
1.20627
1.21172
1.37143
1.82675
2.85278
3.46261
4.08736
4.58187
4.80177
4.75107
4.63586
4.58535
5.29537
8.31695
6.29288
6.12448
6.36371
6.6424
6.98034
6.95722
1.4775
1.45037
1.39446
1.3767
1.40479
1.74325
3.77444
4.92764
5.62571
6.37944
7.15145
7.83854
8.43207
9.00257
9.6242
10.2968
10.9441
11.5087
11.9819
12.3384
12.5489
12.7292
12.6473
12.5047
12.1138
1.47991
1.44722
1.40578
1.40987
2.01251
3.98597
4.73764
4.80106
6.12914
7.60923
8.92528
9.89688
10.8141
12.0567
13.7352
15.2974
16.5071
17.3363
17.6781
17.8422
18.0977
18.1346
18.0156
16.5542
15.6405
1.48165
1.4455
1.40729
1.45378
3.51786
7.30336
5.29124
3.00626
2.69798
2.76676
3.18027
4.07491
5.27264
6.88881
8.71089
9.72989
10.1879
10.3242
10.3731
10.3385
10.3246
10.2529
8.48667
6.98303
7.36683
1.4825
1.44521
1.41541
1.4303
2.40102
6.38532
4.50587
3.11834
2.28377
2.01141
2.23328
6.20786
4.20392
2.81826
2.5447
2.14642
1.87786
1.86382
2.01678
2.21284
2.34194
2.39687
2.24976
2.3918
2.62411
1.48413
1.4409
1.42346
1.46262
2.57673
5.02782
4.54372
4.63061
5.1866
4.1644
3.25766
6.8737
5.10387
3.01435
2.29764
2.06939
1.76969
1.68139
1.89257
2.24553
2.4065
2.41947
2.23575
2.08535
2.11868
1.48348
1.44338
1.44916
1.63304
6.37823
7.78813
8.25149
3.83133
3.58552
3.89697
2.97204
2.4809
2.13281
1.75017
1.61864
1.76201
2.11792
2.39036
2.45024
2.2294
2.05127
2.03802
1.48426
1.43946
1.44728
1.6981
12.4596
2.06951
4.99413
4.51946
4.18028
2.41342
1.84189
1.85189
1.95339
2.076
2.19345
2.28879
2.18342
2.04136
2.02277
1.48311
1.44196
1.42353
1.47851
2.53066
3.44632
4.38966
3.12419
6.15429
6.92825
4.17505
2.24547
1.83444
2.00581
2.16162
2.24165
2.30285
2.34597
2.21421
2.05252
2.02905
1.48091
1.44532
1.40873
1.42554
2.10165
2.60719
7.35533
2.1169
8.18865
7.41438
3.80753
2.13315
1.81971
1.99302
2.1726
2.26378
2.3464
2.38576
2.19316
2.03062
2.01093
1.48123
1.44376
1.404
1.44812
2.43941
2.48024
3.37441
13.1136
9.93519
5.85297
2.29618
2.23364
2.99646
5.59982
4.04269
2.39338
1.93065
1.9279
2.02457
2.13748
2.23526
2.32705
2.18382
2.00815
1.98897
1.48253
1.43987
1.40317
1.5086
2.94003
2.86923
12.3038
4.29695
2.21588
1.54685
1.59583
2.18087
2.99515
3.82235
4.08581
3.73203
3.1614
2.53698
2.12501
2.11396
2.20506
2.26631
2.1097
1.91361
1.91144
1.47505
1.43964
1.40834
1.63497
3.49212
2.8595
4.26812
6.96586
4.0975
1.48015
1.46519
2.03708
2.0007
2.13528
2.19931
2.10097
2.88455
3.82272
2.69472
2.02391
2.07633
1.92903
1.77639
1.65221
1.69877
1.48407
1.43584
1.41517
1.76543
4.03244
2.72521
2.25503
2.40372
3.12746
5.60356
2.87824
2.74756
4.05187
2.94408
2.25291
1.57233
2.1064
2.33591
2.76587
2.42654
2.07478
1.86706
1.67149
1.51965
1.54537
1.48361
1.43763
1.42254
1.89241
4.61183
2.94236
2.18505
2.15677
2.47845
2.5776
2.8366
2.94642
4.19075
3.32654
2.99471
2.39888
2.17044
1.98977
3.13336
2.76606
2.71749
2.05643
1.68308
2.05431
2.23806
1.47625
1.44127
1.43496
2.04869
5.13179
3.21391
2.33757
2.27401
2.44225
2.70131
2.86368
8.96591
6.86772
3.95658
2.41219
2.04771
2.01876
2.03098
2.42568
3.17219
2.91129
2.3732
3.25478
5.93235
6.4592
1.48269
1.43567
1.42945
1.73648
4.44302
4.45441
3.18829
2.93106
2.98136
3.24788
3.80843
8.67057
7.35964
6.48004
6.14549
6.23161
5.96797
7.78068
8.27285
7.45839
7.4597
7.91667
8.78822
11.3996
11.305
1.47862
1.44226
1.39405
1.42877
1.90586
3.09228
4.00544
3.995
3.85617
4.01378
4.53111
7.76791
10.3891
9.86095
10.1674
9.98932
11.2054
16.334
16.469
13.8145
12.7688
14.0494
14.1546
13.8951
13.7115
1.4788
1.44767
1.39536
1.36412
1.40159
1.66908
3.39638
5.97703
5.93116
5.63395
5.03595
5.43815
5.51564
5.91032
7.20567
10.5618
13.0719
20.9463
21.0302
16.4205
16.6739
16.9076
16.7775
16.142
15.3567
1.48058
1.44431
1.40544
1.36042
1.33337
1.36864
1.7275
10.1797
8.53977
6.76625
6.34903
6.79612
6.99294
7.53791
7.0291
7.09591
8.32358
14.9664
17.0533
15.1062
14.6364
14.3402
14.1961
14.2263
13.3539
1.4812
1.44318
1.40768
1.36094
1.32566
1.33393
1.36724
1.75041
2.53706
3.99228
5.03335
5.80805
5.97016
5.98263
5.96223
5.76463
5.75952
6.33448
7.32421
7.71145
6.76025
6.88644
7.10895
7.81235
8.01017
1.47826
1.45171
1.39915
1.39582
1.52606
1.83996
2.7595
4.02578
5.41276
6.69433
7.86249
8.85537
9.68388
10.3968
11.0844
11.7466
12.2947
12.7128
13.072
13.3952
13.7392
13.8315
13.8308
13.6983
13.23
1.48105
1.44769
1.40976
1.43336
1.91857
3.26264
3.55064
4.29421
6.26521
8.39319
10.1704
11.4618
12.6015
13.9797
15.622
16.9698
17.9853
18.6661
19.0681
19.2634
19.4205
19.433
19.1654
17.2841
16.7653
1.483
1.44455
1.41644
1.49195
2.64439
3.60051
3.16665
2.69337
2.92478
3.41563
3.9693
4.51159
5.50789
7.05166
8.72062
9.70619
10.1984
10.3475
10.4136
10.3854
10.3353
10.253
8.4538
7.04427
7.78613
1.48343
1.44423
1.42542
1.48244
2.14981
2.85521
2.74132
2.32058
2.06231
1.92396
1.89045
2.47069
2.53809
2.17878
2.02655
1.81752
1.68041
1.64204
1.64616
1.66094
1.67254
1.67888
1.71401
1.94889
2.2319
1.48293
1.44361
1.43683
1.50713
2.31377
3.36
3.23153
3.55346
5.0737
3.99357
2.74198
3.21027
3.29282
2.32094
1.88179
1.6745
1.51707
1.44701
1.45037
1.4901
1.50895
1.51623
1.50442
1.50361
1.56242
1.48405
1.44546
1.45309
1.60481
3.67866
6.21121
4.79285
12.3727
8.83613
8.26027
3.87363
2.69919
2.77065
2.53105
2.06429
1.70493
1.51436
1.44341
1.44249
1.48059
1.5085
1.51385
1.49826
1.47647
1.49041
1.48353
1.44304
1.45028
1.61132
3.91745
5.2512
5.09344
5.9687
2.73731
4.30016
3.75915
2.09917
1.53332
1.45745
1.45937
1.47603
1.48923
1.50097
1.49099
1.47256
1.47803
1.48382
1.44333
1.43249
1.50336
2.23218
3.10392
7.39622
2.5316
6.86686
6.81946
3.95837
2.09101
1.5329
1.47703
1.48628
1.49343
1.49684
1.50527
1.49237
1.47236
1.47446
1.4826
1.44489
1.41825
1.47764
2.22734
2.69919
9.30303
3.3159
9.19837
7.39501
3.44208
1.90237
1.50736
1.47372
1.48845
1.49619
1.50578
1.50709
1.48922
1.47025
1.47244
1.48322
1.44138
1.41607
1.52196
2.53783
2.40894
3.484
12.1459
8.91918
5.03926
2.29822
2.09147
3.6566
5.21115
3.19497
1.85645
1.52165
1.47696
1.47497
1.48541
1.49891
1.50845
1.48972
1.46907
1.4715
1.48317
1.43752
1.42093
1.6417
2.96951
2.45681
3.98398
7.71391
5.21383
3.41772
2.3355
2.16572
2.60025
2.96533
2.82787
2.43959
2.12179
1.84558
1.59854
1.54151
1.53898
1.51955
1.48953
1.4583
1.45904
1.47924
1.43825
1.43314
1.86139
3.49947
2.47157
2.47905
4.49173
3.58048
2.47383
2.61027
2.86837
2.672
2.69876
2.95897
3.11075
3.1254
2.72145
2.09188
1.8737
1.7356
1.56297
1.47792
1.4298
1.42416
1.4783
1.44206
1.44137
2.05061
3.96046
2.51457
1.81839
1.83315
2.19067
2.34008
3.55084
3.41102
2.8825
2.13118
1.89779
1.96592
2.12905
2.04303
1.83775
1.89389
1.7909
1.61193
1.51022
1.4798
1.50396
1.47738
1.44734
1.45251
2.25402
4.47129
2.71918
1.81065
1.64819
1.77872
1.89549
2.16588
2.46891
2.767
2.156
1.88548
1.797
1.71655
1.6329
1.73041
1.90659
1.75647
1.65819
1.6259
2.33419
2.66674
1.48072
1.44527
1.46307
2.46528
5.03313
2.98517
1.97765
1.74592
1.7638
1.85844
2.01101
3.31065
4.98612
3.15323
2.18628
1.99126
2.06872
2.15979
2.33127
2.66427
2.80103
2.82762
4.19437
7.52452
8.11425
1.47758
1.44135
1.45061
1.93913
4.72601
4.32043
3.00705
2.62192
2.59489
2.91264
3.63901
5.78122
6.87554
6.84085
7.25748
8.16215
8.97661
9.79896
10.7093
10.7016
10.6497
10.9914
13.0499
13.362
13.4132
1.48055
1.43992
1.41328
1.49922
2.04586
3.39967
4.00968
3.98618
3.76824
3.96717
4.44062
5.83493
6.54713
6.87404
8.00036
10.1171
11.4256
13.6562
15.1191
15.2397
14.6494
14.3724
14.5732
14.8137
14.8041
1.48002
1.44762
1.39889
1.39846
1.4887
1.80089
3.04955
5.16402
5.50032
5.06447
5.0826
5.55724
5.907
6.13171
6.4567
7.46852
9.11188
14.2382
16.7828
15.025
15.114
15.429
15.4231
15.452
15.2713
1.48025
1.44737
1.40814
1.37126
1.37382
1.46256
1.85375
3.96656
5.54933
6.09529
6.39009
6.42479
6.45124
6.60176
6.71116
6.91636
7.27606
9.94761
12.7254
11.317
11.8442
12.5121
12.6641
12.8942
12.7576
1.48055
1.44626
1.41339
1.36895
1.3629
1.38463
1.47042
1.83924
2.91671
4.38951
5.59174
6.34977
6.46606
6.48386
6.44355
6.1409
5.92756
5.9465
5.96172
5.9938
6.08135
6.21544
6.45588
7.31736
7.73525
1.47847
1.45156
1.39774
1.39215
1.49786
1.7647
2.28974
3.67417
5.33947
6.92413
8.35563
9.5779
10.6006
11.3383
11.9688
12.5292
13.0553
13.5029
13.8667
14.1555
14.4736
14.5441
14.5159
14.2268
13.9092
1.48159
1.44658
1.40937
1.42921
1.85125
2.85387
3.17442
4.21211
6.40182
8.79854
10.89
12.5062
13.8787
15.3195
16.8114
17.9108
18.9157
19.488
19.8027
19.8877
20.0489
20.0113
19.6231
17.593
17.2804
1.48288
1.44345
1.4175
1.49849
2.45247
2.47109
2.19987
2.36157
2.96343
3.73681
4.52401
5.19622
6.11457
7.45364
8.80731
9.64123
10.1357
10.2772
10.3511
10.3259
10.2967
10.2155
8.42358
7.08331
7.97293
1.48226
1.44327
1.42586
1.49339
2.09573
2.06475
1.89015
1.81366
1.81429
1.81804
1.74852
1.75682
1.78867
1.75977
1.73183
1.65644
1.61251
1.5923
1.57925
1.56979
1.56576
1.56869
1.61492
1.85786
2.16189
1.48533
1.44196
1.43435
1.49923
2.0662
2.25196
2.24645
2.78736
3.92462
3.21228
2.40005
2.09942
1.99095
1.78837
1.61983
1.50764
1.4352
1.40109
1.38934
1.38821
1.38876
1.39033
1.38441
1.38263
1.41089
1.48551
1.44293
1.44408
1.52469
2.29411
3.1526
3.60736
14.7642
8.33751
5.88358
3.35305
2.42154
2.41049
2.20736
1.83381
1.55783
1.44038
1.40042
1.38761
1.38719
1.38771
1.38866
1.38016
1.34636
1.33954
1.48483
1.44291
1.44211
1.5169
2.24141
3.07484
5.99568
9.35045
2.73477
4.01258
3.25648
1.95748
1.47942
1.39984
1.38708
1.38574
1.38521
1.38685
1.37902
1.34698
1.32836
1.48357
1.44407
1.42832
1.4815
2.06005
2.76478
8.40182
3.04848
7.03379
4.93456
3.17011
1.96199
1.48169
1.40018
1.38786
1.38672
1.38554
1.3863
1.37903
1.3484
1.32653
1.48356
1.4436
1.41946
1.48903
2.24925
2.68824
9.50082
4.46313
7.52941
5.47182
3.11488
1.83402
1.45567
1.39567
1.38741
1.38543
1.38716
1.38675
1.37935
1.34932
1.32733
1.48401
1.43973
1.42069
1.5484
2.55226
2.37079
3.32651
10.494
7.53829
4.10283
1.99053
1.63224
4.40859
4.73069
2.83801
1.71157
1.4436
1.39984
1.38878
1.38504
1.3875
1.38941
1.38011
1.35058
1.33114
1.47861
1.43815
1.42771
1.68848
2.95278
2.31515
2.22248
3.25792
3.54359
2.77983
2.05275
1.99414
2.34115
2.25191
1.90835
1.66243
1.56085
1.49635
1.43046
1.40381
1.40122
1.39617
1.38544
1.35816
1.33521
1.48422
1.43673
1.43803
1.92658
3.45713
2.38304
1.96555
2.31218
2.3471
2.05626
1.95219
2.05515
1.98302
1.83244
1.75902
1.75731
1.75851
1.6827
1.54267
1.4941
1.47056
1.42572
1.39666
1.36197
1.35356
1.47627
1.4456
1.4487
2.15192
3.92593
2.50454
1.71239
1.62038
1.76036
1.82682
1.9735
2.14026
1.98996
1.70423
1.58661
1.59152
1.60847
1.57448
1.5115
1.53218
1.50821
1.44859
1.41719
1.46146
1.51853
1.47798
1.44967
1.46137
2.4265
4.44446
2.70173
1.78064
1.57321
1.62085
1.67136
1.74045
1.90895
1.92165
1.67685
1.54922
1.5097
1.48962
1.47301
1.47966
1.5343
1.50432
1.47855
1.56196
2.54783
3.02791
1.48416
1.44609
1.47065
2.68065
5.06311
2.95501
1.94083
1.69562
1.68201
1.72223
1.80805
2.18179
2.64064
2.2905
2.05971
2.09322
2.28089
2.47322
2.70859
2.99551
3.18373
3.32703
5.08081
8.80783
9.45388
1.48079
1.44086
1.4589
2.03937
4.88883
4.33069
2.99109
2.57191
2.52422
2.84579
3.6198
5.03157
6.34418
7.15425
8.11296
9.35715
10.4314
11.3606
12.3447
12.7801
12.9492
13.3066
14.622
14.7266
14.8663
1.4822
1.43785
1.42057
1.52579
2.08939
3.56656
4.00774
3.99517
3.71663
3.90768
4.39638
5.45701
6.362
7.00217
7.56612
8.75219
9.86018
11.8325
13.3534
13.9124
14.0049
14.1169
14.3908
14.7571
15.0042
1.48071
1.44596
1.40173
1.41099
1.51953
1.84925
2.90446
4.24631
4.67085
4.69865
4.86451
5.19521
5.57814
6.0011
6.30647
6.86409
7.58646
9.72967
11.5805
12.4585
12.9349
13.3128
13.6685
13.9517
14.0092
1.47985
1.44873
1.40397
1.37801
1.39591
1.47523
1.78003
2.93924
4.4171
5.50764
5.96868
6.08768
6.13091
6.19472
6.23396
6.39084
6.55048
7.24552
8.22522
8.86208
9.37522
9.9075
10.3236
10.9042
10.9858
1.47981
1.44792
1.41069
1.37276
1.37356
1.40491
1.51089
1.83154
2.9661
4.44849
5.69332
6.4859
6.64512
6.65573
6.50868
6.08725
5.71813
5.58934
5.48059
5.44927
5.40954
5.46275
5.55642
5.96764
6.45809
1.47834
1.4518
1.39628
1.38678
1.47452
1.72506
2.1782
3.59268
5.44052
7.18486
8.75333
10.1261
11.2632
12.0822
12.662
13.2088
13.704
14.1282
14.4661
14.7261
14.993
15.0341
14.9797
14.6486
14.3364
1.48181
1.44566
1.40932
1.42408
1.78856
2.6948
3.07324
4.27188
6.57564
9.07282
11.3367
13.1959
14.7709
16.2514
17.6117
18.6374
19.3728
19.9679
20.1585
20.2514
20.3039
20.309
19.8904
17.772
17.5227
1.48179
1.44279
1.4165
1.49531
2.37309
2.23638
1.95729
2.22981
2.93499
3.84274
4.85328
5.76003
6.72456
7.89743
8.96327
9.63402
10.0669
10.2146
10.2647
10.2393
10.2404
10.1884
8.43024
7.09944
8.05981
1.4828
1.44267
1.42368
1.49218
2.07722
1.92306
1.63564
1.59101
1.63635
1.69744
1.65824
1.60203
1.59396
1.61088
1.61908
1.59766
1.58212
1.57389
1.56478
1.55685
1.55781
1.55817
1.60647
1.85713
2.17504
1.48219
1.44329
1.42927
1.48638
1.96374
1.90383
1.7888
2.13148
2.7425
2.51056
2.09227
1.78038
1.64726
1.58845
1.51864
1.45647
1.41501
1.39388
1.38297
1.3782
1.37754
1.37729
1.36988
1.36821
1.3933
1.4836
1.44402
1.43444
1.48256
1.92024
2.13884
2.72557
12.5714
8.18494
4.74873
2.99161
2.29948
2.20038
1.96815
1.68402
1.49873
1.41983
1.39353
1.38221
1.37771
1.37578
1.37619
1.36732
1.33729
1.31446
1.48451
1.44462
1.43156
1.47143
1.89733
2.33857
5.28755
14.4057
3.0093
2.72081
2.25127
1.71366
1.44799
1.39197
1.38029
1.37692
1.37457
1.37496
1.36713
1.33552
1.30287
1.48385
1.44476
1.42296
1.4631
1.98733
2.51757
7.73041
5.14507
5.79666
3.40263
2.4491
1.75023
1.45253
1.3918
1.37908
1.37688
1.37538
1.37451
1.36651
1.33603
1.30139
1.48379
1.44284
1.4186
1.48512
2.22959
2.57873
8.17696
2.83956
4.19123
3.61854
2.50019
1.70839
1.43827
1.38909
1.37926
1.37493
1.37568
1.37426
1.36715
1.33725
1.30308
1.4842
1.43872
1.42123
1.55791
2.53994
2.29229
2.8089
8.17412
5.92051
3.19545
1.80537
1.94619
3.77829
3.2846
2.23583
1.60353
1.42459
1.3892
1.37896
1.37573
1.37547
1.37673
1.36733
1.33987
1.30771
1.47997
1.43744
1.42969
1.69396
2.93164
2.26399
1.88474
2.10872
2.50081
2.2485
1.87934
1.90301
2.11561
1.95442
1.67146
1.49448
1.42974
1.40501
1.38774
1.3775
1.37817
1.37937
1.37107
1.34534
1.31723
1.48526
1.43743
1.44012
1.90701
3.41326
2.37465
1.73957
1.69917
1.79778
1.78947
1.69233
1.67073
1.67265
1.60369
1.52236
1.4748
1.45302
1.43672
1.40969
1.39534
1.39378
1.38894
1.37702
1.35289
1.35061
1.47688
1.44661
1.45227
2.17798
3.90953
2.52031
1.70159
1.54633
1.60426
1.65692
1.64371
1.6573
1.63152
1.54581
1.47711
1.45032
1.4374
1.42665
1.40892
1.40541
1.40519
1.39508
1.38635
1.46862
1.55732
1.48057
1.44974
1.4656
2.50849
4.46752
2.72987
1.79509
1.57462
1.59401
1.62004
1.62122
1.65297
1.61478
1.51842
1.45934
1.43696
1.42855
1.42229
1.41762
1.4273
1.42742
1.42739
1.54926
2.71949
3.32808
1.48378
1.44829
1.47463
2.78273
5.12988
2.98202
1.95291
1.70427
1.67817
1.68971
1.71716
1.81413
1.9498
1.97468
2.04106
2.21571
2.45935
2.72283
3.03718
3.3807
3.61107
3.81179
5.81143
9.77771
10.4917
1.4844
1.43984
1.46397
2.08477
5.00119
4.37952
3.00754
2.55548
2.47913
2.74764
3.47567
4.68556
6.08094
7.35702
8.7458
10.2043
11.334
12.3931
13.3972
14.0736
14.5124
14.8945
15.7515
15.7851
15.9205
1.47635
1.4389
1.42974
1.54348
2.1196
3.70039
4.07786
4.06063
3.73926
3.87999
4.34509
5.33007
6.32401
7.21418
7.8872
8.79968
9.62794
10.8559
12.1254
12.9496
13.4133
13.6811
14.0458
14.3811
14.8362
1.4811
1.44486
1.40363
1.41802
1.53773
1.87788
2.98
4.06434
4.58491
4.62604
4.80324
5.03598
5.35969
5.84845
6.26169
6.7745
7.22416
8.1785
9.3693
10.2698
10.8664
11.2578
11.6752
11.9486
12.3142
1.47986
1.44883
1.4026
1.38166
1.4052
1.49345
1.78831
2.89999
4.20428
5.27905
5.79269
5.96535
5.97945
6.01274
6.00936
6.03345
6.08239
6.25872
6.67916
7.06198
7.38369
7.65481
7.95363
8.30206
8.6987
1.47901
1.45011
1.40503
1.37395
1.37914
1.41645
1.53616
1.89102
3.04039
4.5182
5.78076
6.49688
6.68409
6.67781
6.37884
5.93469
5.30433
5.16204
4.89723
4.87894
4.71075
4.71026
4.70964
4.77207
5.00631
1.47829
1.45144
1.39744
1.38067
1.46371
1.7136
2.16948
3.66301
5.65481
7.49089
9.12068
10.5674
11.8003
12.632
13.2441
13.7791
14.2534
14.6466
14.9571
15.2006
15.3724
15.4215
15.3498
15.0051
14.6727
1.48188
1.44452
1.40771
1.42256
1.76752
2.65112
3.09285
4.42878
6.80595
9.33371
11.6631
13.6599
15.3947
16.9055
18.1955
19.2156
19.855
20.3158
20.4089
20.5163
20.5521
20.4821
20.0358
17.9263
17.7063
1.48142
1.44223
1.41543
1.49587
2.36578
2.2199
1.94462
2.21913
2.93453
3.89526
5.01431
6.06523
7.13658
8.24252
9.09072
9.64796
10.0003
10.1458
10.2138
10.1959
10.2057
10.1559
8.39948
7.07402
8.11589
1.48348
1.44203
1.42137
1.49085
2.07739
1.91746
1.59998
1.5203
1.55495
1.62506
1.60769
1.56933
1.55711
1.57877
1.58884
1.58014
1.57328
1.56607
1.56078
1.55847
1.56126
1.56089
1.61515
1.90045
2.23785
1.48367
1.44287
1.42494
1.47942
1.9362
1.85361
1.63617
1.71373
2.01107
2.05048
1.84759
1.65003
1.55442
1.52121
1.48084
1.44092
1.41267
1.39549
1.38578
1.37993
1.37967
1.3804
1.37795
1.404
1.44042
1.48411
1.44431
1.42669
1.46619
1.84491
1.93222
2.12892
5.43929
6.17069
3.75407
2.42623
1.9395
1.86365
1.74003
1.57152
1.46401
1.41502
1.39454
1.38444
1.37928
1.37771
1.3787
1.37374
1.366
1.35737
1.48358
1.4454
1.42444
1.45514
1.83135
2.12044
3.36421
16.9521
11.4758
5.79992
2.67766
2.07006
2.36256
2.17325
1.82601
1.55037
1.42763
1.39324
1.38366
1.37992
1.37782
1.378
1.37309
1.35984
1.34594
1.48349
1.44439
1.41947
1.45595
1.96143
2.33083
4.74411
17.1487
12.3962
5.67527
2.60466
1.98365
2.90739
2.82888
2.08697
1.61018
1.43446
1.39237
1.38246
1.37958
1.37816
1.37744
1.3725
1.3591
1.34438
1.48361
1.44194
1.41783
1.48379
2.21266
2.39131
4.46573
14.9159
9.82569
4.51046
2.33004
2.14321
3.26078
2.84986
2.08558
1.59583
1.4279
1.3918
1.383
1.37933
1.37883
1.37779
1.3737
1.36057
1.34591
1.48435
1.43769
1.42154
1.55933
2.5305
2.22471
2.26031
4.08941
4.03737
2.64654
1.93873
2.33001
2.76148
2.31493
1.8248
1.52133
1.41781
1.39093
1.38127
1.37892
1.37796
1.37962
1.37406
1.36388
1.35008
1.47981
1.43723
1.43294
1.6875
2.91252
2.24408
1.7448
1.75704
1.96837
1.92099
1.74217
1.75641
1.85522
1.73962
1.56932
1.45843
1.41123
1.39228
1.38233
1.37842
1.37847
1.38084
1.3769
1.36989
1.36007
1.48598
1.43781
1.4413
1.89843
3.38985
2.3803
1.68676
1.56159
1.60578
1.65853
1.61566
1.58707
1.5776
1.53822
1.48189
1.43652
1.41089
1.39819
1.38699
1.38209
1.38262
1.38465
1.38103
1.38993
1.39712
1.47734
1.44734
1.45442
2.19776
3.92836
2.54949
1.72545
1.5293
1.55821
1.60318
1.58344
1.55869
1.53789
1.49808
1.45539
1.42716
1.41011
1.39931
1.38818
1.38473
1.38615
1.38745
1.38715
1.51525
1.63652
1.48296
1.44986
1.46779
2.53735
4.5061
2.77285
1.82148
1.58725
1.59137
1.60987
1.59597
1.57569
1.53346
1.48188
1.44577
1.42859
1.41914
1.4121
1.40784
1.41077
1.41479
1.42082
1.55702
2.85938
3.61505
1.48284
1.45053
1.47947
2.84723
5.18091
3.02092
1.98064
1.71944
1.67925
1.67446
1.6748
1.69657
1.75931
1.87713
2.05776
2.30263
2.5777
2.88491
3.25861
3.6446
3.91492
4.14328
6.27297
10.4855
11.3246
1.48448
1.44078
1.46492
2.07009
5.12124
4.43964
3.03484
2.55002
2.44852
2.65563
3.3356
4.50135
5.96189
7.51005
9.16054
10.743
12.0008
13.1476
14.2427
15.0446
15.592
15.961
16.6223
16.6867
16.8101
1.47703
1.43867
1.43427
1.56652
2.1636
3.87988
4.20984
4.15802
3.82447
3.94834
4.39683
5.35663
6.412
7.44564
8.30636
9.15221
9.89328
10.7677
11.7455
12.4972
13.0701
13.4404
13.8623
14.2002
14.7285
1.48151
1.44407
1.4052
1.42427
1.55567
1.92105
3.1558
4.20107
4.68033
4.73327
4.86923
5.05352
5.36981
5.85741
6.26962
6.78497
7.19226
7.72624
8.35037
8.95116
9.40163
9.74597
10.1163
10.3124
10.8102
1.47985
1.44934
1.39813
1.38809
1.41417
1.51485
1.86117
3.03899
4.32554
5.34209
5.80557
5.91837
5.94506
5.92244
5.80085
5.80551
5.76241
5.85554
5.88341
6.03055
6.16185
6.24421
6.33916
6.42375
6.7814
1.4788
1.4505
1.40395
1.37507
1.38289
1.42386
1.55673
1.96251
3.18976
4.7143
5.93246
6.57792
6.73049
6.67023
6.21066
5.74526
5.0002
4.82257
4.51766
4.47859
4.23821
4.21503
4.12975
4.06243
4.10715
1.47815
1.45169
1.39422
1.38483
1.47703
1.75151
2.26541
3.90327
5.98431
7.87374
9.52982
11.0039
12.247
13.1128
13.7251
14.2704
14.7435
15.1227
15.428
15.7241
15.8099
15.8344
15.7257
15.3903
14.9861
1.4819
1.44407
1.40525
1.42761
1.79933
2.6998
3.25977
4.77754
7.21726
9.75283
12.0971
14.1662
16.0108
17.5576
18.8319
19.7951
20.4105
20.7307
20.8696
20.9789
20.9505
20.8088
20.2635
18.267
18.0003
1.48026
1.44174
1.4145
1.50268
2.42195
2.28125
2.04387
2.33651
3.03856
3.97451
5.11834
6.23188
7.42398
8.47493
9.19293
9.6475
9.91185
10.0609
10.1633
10.1635
10.1202
10.0675
8.30013
7.10903
8.24425
1.48217
1.4417
1.41927
1.49788
2.12986
1.97571
1.65585
1.55541
1.57471
1.63436
1.62689
1.6004
1.60171
1.62418
1.62409
1.61452
1.60758
1.59805
1.59853
1.5937
1.59418
1.5954
1.67699
2.05192
2.39526
1.48344
1.44237
1.42147
1.4812
1.97039
1.89446
1.63052
1.6015
1.72404
1.82033
1.73945
1.63123
1.56997
1.54256
1.50985
1.47691
1.45253
1.43488
1.42515
1.41832
1.41578
1.41634
1.44222
1.52504
1.57338
1.48359
1.44415
1.42179
1.46393
1.86879
1.91498
1.85567
2.4715
3.26809
2.62768
2.0497
1.77836
1.71851
1.64918
1.55474
1.48839
1.45274
1.43373
1.42303
1.41739
1.41471
1.41557
1.43543
1.48964
1.47819
1.48314
1.44479
1.42
1.45314
1.85389
2.03768
2.3089
5.47258
6.39254
3.73666
2.22879
1.88058
2.04542
1.93543
1.69279
1.5278
1.45774
1.43189
1.42261
1.41729
1.41485
1.4158
1.43413
1.48343
1.46515
1.48336
1.44318
1.4171
1.45786
1.97796
2.17761
2.69175
7.76124
7.01522
3.84773
2.20194
1.86706
2.2749
2.25294
1.84661
1.56851
1.46248
1.43107
1.42103
1.41758
1.4158
1.41461
1.43382
1.48286
1.46297
1.48162
1.4412
1.41774
1.49228
2.23702
2.22598
2.54406
5.94109
5.53474
3.21724
2.02734
1.93382
2.41577
2.25728
1.83855
1.56341
1.4589
1.43043
1.42149
1.41731
1.41589
1.41555
1.43502
1.48335
1.46317
1.48435
1.43659
1.42206
1.57236
2.5633
2.19354
1.94271
2.36871
2.65021
2.17779
1.82841
1.91677
2.13331
1.94332
1.68312
1.5189
1.45251
1.42944
1.41968
1.41729
1.41555
1.41723
1.43539
1.48317
1.46422
1.47846
1.43788
1.43395
1.69909
2.93478
2.27942
1.71056
1.65234
1.74444
1.77192
1.69253
1.69649
1.71928
1.65255
1.55581
1.48513
1.44728
1.42888
1.41909
1.41661
1.4162
1.41859
1.43866
1.48708
1.47096
1.48585
1.43823
1.44257
1.93732
3.43074
2.43079
1.71176
1.5645
1.58933
1.64513
1.62859
1.60543
1.58613
1.55275
1.50923
1.47067
1.44524
1.43029
1.42037
1.41814
1.41875
1.4193
1.44225
1.50618
1.50605
1.47761
1.44793
1.45616
2.25173
4.00729
2.62967
1.78312
1.57815
1.58861
1.62112
1.60982
1.58428
1.55832
1.52509
1.49037
1.46327
1.44464
1.43186
1.42121