/*--------------------------------*- C++ -*----------------------------------*\
  =========                 |
  \\      /  F ield         | OpenFOAM: The Open Source CFD Toolbox
   \\    /   O peration     | Website:  https://openfoam.org
    \\  /    A nd           | Version:  6
     \\/     M anipulation  |
\*---------------------------------------------------------------------------*/
FoamFile
{
    version     2.0;
    format      ascii;
    class       volScalarField;
    location    "20";
    object      nut;
}
// * * * * * * * * * * * * * * * * * * * * * * * * * * * * * * * * * * * * * //

dimensions      [0 2 -1 0 0 0 0];

internalField   nonuniform List<scalar> 
230684
(
0.942542
0.901239
0.867785
0.846875
0.400753
0.374053
0.34679
1.14025
1.23703
1.29034
1.3243
1.37141
1.38367
1.41093
1.43611
1.46602
1.50412
1.54388
1.58576
1.62256
1.65095
1.67409
1.68225
1.69025
1.68947
0.937802
0.908427
0.432358
0.404026
0.179638
0.183667
0.106882
0.505189
0.514807
0.522993
0.537866
0.571955
0.599003
0.659765
0.717998
0.773934
0.838896
0.84692
0.877002
0.878464
0.883282
0.894553
0.880962
2.1585
1.93944
0.938167
0.905448
0.434068
0.192166
0.164938
0.207048
0.168607
0.299166
0.299394
0.26414
0.274218
0.268098
0.263161
0.288629
0.31253
0.345163
0.355621
0.354348
0.352492
0.346959
0.342065
0.340062
0.761148
1.59181
1.48631
0.894371
0.459955
0.208375
0.17417
0.154239
0.209833
0.128377
0.310984
0.299532
0.280955
0.259356
0.132051
0.117784
0.0982693
0.0706676
0.252023
0.2353
0.243073
0.255277
0.262443
0.261986
0.257425
0.61038
1.28189
1.19265
0.938393
0.905318
0.430114
0.186393
0.155913
0.180275
0.210338
0.240936
0.2999
0.322779
0.272614
0.107619
0.118552
0.092659
0.0842213
0.336476
0.309222
0.307985
0.303091
0.295481
0.288808
0.278821
0.644679
1.2937
1.26143
0.939204
0.906848
0.432462
0.181056
0.0619202
0.172407
0.139855
0.132373
0.231
0.24348
0.273346
0.263856
0.243732
0.245299
0.0944803
0.304003
0.250382
0.225657
0.240543
0.261611
0.263756
0.270996
0.637671
1.24054
1.22844
0.939386
0.906574
0.433211
0.180125
0.122448
0.139844
0.132701
0.110899
0.117968
0.121532
0.114391
0.126899
0.101387
0.294188
0.219652
0.222811
0.25143
0.265817
0.265314
0.263186
0.260273
0.258515
0.625614
1.22325
1.21513
0.938647
0.905426
0.433769
0.190264
0.158926
0.16141
0.17304
0.251757
0.220167
0.152198
0.139799
0.134188
0.0981179
0.39098
0.293222
0.263038
0.235246
0.22895
0.238147
0.245439
0.250977
0.255131
0.624804
1.29532
1.2139
0.938419
0.904452
0.43383
0.192397
0.163168
0.155454
0.196736
0.295199
0.227926
0.152799
0.142251
0.133243
0.378374
0.352794
0.298293
0.259574
0.223711
0.212491
0.221592
0.235237
0.243014
0.253109
0.576055
1.29839
1.22795
0.937937
0.90393
0.433651
0.192454
0.158943
0.162495
0.194348
0.130489
0.344
0.23838
0.241888
0.125527
0.256364
0.245168
0.277179
0.307975
0.30629
0.288494
0.272552
0.261512
0.258236
0.259624
0.59345
1.24847
1.23761
0.937973
0.90367
0.433839
0.191947
0.14483
0.0531889
0.0833716
0.207463
0.149966
0.130296
0.137933
0.125338
0.0947259
0.196615
0.244294
0.274811
0.271318
0.261558
0.255201
0.250811
0.255501
0.259508
0.632667
1.31586
1.18115
0.937833
0.904158
0.434733
0.193829
0.158886
0.177587
0.110209
0.224254
0.143218
0.129536
0.122628
0.113038
0.082811
0.107943
0.123403
0.117461
0.102381
0.255323
0.112014
0.109112
0.197899
0.233167
0.483395
1.21644
1.05926
0.937878
0.904253
0.435377
0.195473
0.165884
0.216058
0.222368
0.295523
0.157216
0.138762
0.114794
0.0766895
0.342114
0.10626
0.0777957
0.112402
0.063136
0.13832
0.179616
0.141113
0.109618
0.311457
0.640032
0.574601
1.07332
0.9385
0.903349
0.435318
0.196733
0.168901
0.25343
0.278735
0.271526
0.278556
0.256984
0.258277
0.252785
0.248287
0.236175
0.24153
0.0676258
0.2175
0.229446
0.105851
0.245038
0.154287
0.136249
0.101229
0.254853
1.02559
0.936795
0.902551
0.434427
0.197032
0.17625
0.301756
0.311564
0.291759
0.299983
0.311542
0.306628
0.33719
0.123904
0.0848959
0.200798
0.252992
0.252313
0.258642
0.248545
0.260916
0.254941
0.137822
0.126317
0.291204
1.2241
0.933791
0.910586
0.423315
0.39066
0.350675
0.523018
0.637076
0.627311
0.678756
0.682826
0.335529
0.106664
0.120544
0.0749616
0.180274
0.219495
0.202312
0.783118
0.262694
0.140486
0.116964
0.0969073
0.16417
1.41337
1.41449
0.942949
0.890829
0.876302
0.817848
0.77328
0.795836
0.398904
0.462731
1.24164
0.599611
0.298034
0.222544
0.119805
0.0873297
0.0784879
0.167261
0.154056
0.406421
0.137886
0.226141
0.092433
0.183038
0.61291
1.76318
1.68451
0.941627
0.896961
0.86357
0.833722
0.818079
0.364272
0.172974
0.18594
0.602504
1.27823
0.610259
0.276881
0.237819
0.190356
0.19669
0.220139
0.26958
0.266955
0.275572
0.366902
0.116406
2.17673
2.08726
1.94708
1.87016
0.939939
0.90114
0.861422
0.834241
0.812552
0.795026
0.350987
0.230507
0.560037
1.14842
0.530502
0.343749
0.22188
0.634059
0.547914
0.525338
0.524135
0.233957
0.238295
0.365179
0.764055
1.98536
1.98125
1.95729
1.87658
0.940132
0.900508
0.865479
0.83084
0.811538
0.798655
0.740421
0.716636
0.700128
0.734569
0.819707
0.431869
0.470289
1.13469
1.14139
1.14873
0.55912
0.283296
0.296255
0.603712
1.29735
1.39093
1.3979
1.40707
1.42174
5.28275
4.46761
3.80658
3.31238
2.61131
2.30554
4.89938
5.78302
6.27173
6.91766
7.64081
8.35153
8.98179
9.49437
10.0353
10.5663
11.0896
11.4918
11.8205
12.0233
11.9856
11.7753
11.7339
11.0549
10.6342
5.27276
4.52068
3.14324
2.48395
1.57674
0.563276
0.328273
1.33137
2.3421
3.4488
5.15423
6.55612
7.84783
8.97245
10.1067
11.1886
11.7665
11.8467
11.7523
11.2161
11.2677
11.4252
10.9125
11.7328
10.3853
5.2353
4.43497
3.17049
2.00294
1.68979
1.84196
1.65795
1.3035
1.89298
2.98124
3.34624
4.78096
6.73762
7.46181
7.64976
7.58151
7.4393
7.38101
7.3028
7.19116
6.60812
5.88164
6.02825
5.12638
3.83863
2.90872
1.45094
1.55352
1.42107
2.1839
2.90459
3.12573
0.596741
1.86475
2.04308
2.30218
2.65021
3.15057
3.37259
3.29224
3.32593
3.25485
3.23575
3.14219
5.18989
4.27813
2.91613
1.74468
1.56735
1.30167
2.08674
3.26764
3.89996
3.99724
3.87882
0.774477
1.17356
1.58565
1.95837
2.50378
2.95338
3.19346
3.21081
3.26538
3.05526
2.81671
5.18423
4.24934
2.80725
1.78914
0.694521
1.53245
2.49645
3.04297
1.84259
1.04615
1.12343
0.907523
1.15401
1.76051
2.50418
3.01783
3.18773
3.21233
3.26221
2.9853
2.84716
5.20786
4.29316
2.86441
1.83425
0.783324
0.0870823
0.287457
1.397
2.53261
2.709
2.88498
3.12001
3.18695
3.20187
3.24787
3.3143
3.38664
3.04159
2.88637
5.23343
4.34629
3.25511
1.92547
1.35895
1.39102
1.40968
0.233831
1.52991
2.81072
2.55721
2.34401
2.69475
3.10227
3.18593
3.24859
3.23833
3.24372
3.38852
3.14908
2.88
5.25467
4.4586
3.32529
1.98315
2.83091
4.34556
5.07365
3.18353
3.73247
3.01859
2.3107
2.52151
2.97506
3.11176
3.20726
3.2877
3.29823
3.32397
3.14219
2.9532
5.27002
4.4965
3.26218
2.0216
3.36618
4.50133
3.72412
4.03803
1.16711
1.81576
1.13269
0.185356
0.54422
3.0451
3.82114
3.29917
3.0218
3.01795
3.09028
3.152
3.26104
3.29075
3.28922
3.27071
2.9599
5.2856
4.51436
3.27748
2.07803
2.96967
0.433043
1.67974
0.1899
0.577606
1.80076
2.06755
2.3432
2.68506
2.84517
2.80297
2.94547
3.25432
3.3685
3.32398
3.06607
2.95178
5.30623
4.53212
3.27356
2.18302
4.67205
1.85316
0.864012
0.604803
0.150445
0.28478
0.960659
0.887203
0.626741
1.31929
2.2316
2.16131
2.162
2.25184
5.32489
4.50773
3.39973
2.30595
5.38157
4.57041
1.65683
1.83971
0.318293
1.41578
1.42939
0.331086
0.245251
0.527819
0.803966
0.0749815
0.324166
1.0855
1.57321
1.68846
2.04601
5.33614
4.60926
3.24422
2.41423
5.93466
5.34843
4.53374
3.69808
2.76411
2.4837
2.1428
1.92449
0.494233
1.17572
0.658226
0.200265
1.62785
1.91503
0.952096
0.455912
0.722062
0.924476
2.28157
5.35621
4.5229
3.44951
2.67923
6.27494
5.49081
4.56889
4.19992
4.0924
4.04845
3.74601
2.9298
0.559692
0.557396
1.19347
1.57478
2.05286
2.62751
1.72297
1.14119
0.341015
0.867095
1.32194
5.46318
5.35854
4.58664
3.42022
3.06361
5.83434
6.55937
5.22761
4.44092
4.08444
3.925
3.77214
0.400676
0.648611
1.40111
2.30684
1.42188
0.823261
7.48831
8.7105
5.31373
4.61311
3.98576
3.68717
3.88073
5.19234
5.35919
5.08625
4.75612
4.23191
3.79527
1.9562
0.0952459
0.102614
5.24148
0.75436
1.95741
2.96297
5.22907
8.06066
10.0874
10.3003
5.32939
4.57655
4.10723
3.66501
3.46461
3.21187
4.16124
1.22875
1.46373
1.98176
2.27124
2.40445
1.51957
0.282094
0.709037
0.720531
5.08711
1.68946
1.98851
8.67493
9.38331
10.0075
10.145
5.34292
4.55802
4.09552
3.7691
3.37389
3.2601
2.48482
0.431487
1.12827
1.82002
2.29617
1.86974
1.75525
3.59333
3.78379
4.52434
4.47306
2.0405
5.11767
7.81227
8.51595
8.81766
9.4655
5.34925
4.5559
4.09241
3.76808
3.442
3.22031
2.98178
2.70038
2.67532
3.61837
4.19088
4.50514
4.40674
5.56461
5.61517
5.3679
4.96032
3.85291
0.872523
2.38729
4.87926
5.77686
6.74857
7.63531
7.75955
6.66262
6.45285
5.95078
5.67245
5.17168
5.26964
7.54896
8.93586
9.98789
11.1487
12.544
13.6472
14.4722
15.1342
15.8107
16.4901
17.0458
17.408
17.6311
17.6758
17.4533
17.3536
16.7962
16.6175
15.964
6.67066
6.41878
5.86158
5.49971
3.5378
3.88394
4.55309
5.60503
7.56108
8.85542
10.2644
11.5208
12.685
14.123
16.038
17.1349
17.6562
17.8386
17.3852
16.8938
16.7803
16.465
16.4286
15.2868
14.9956
6.67024
6.38025
5.82133
5.34629
4.00467
1.72029
1.86858
2.25487
3.51285
4.06765
5.04247
6.19636
7.07471
9.1084
10.783
11.1141
11.1184
10.8017
10.3482
10.1598
10.1192
9.98013
8.86757
7.91333
8.77009
6.67271
6.37185
5.90936
5.1673
4.2804
1.88902
2.21169
3.71944
4.80354
5.06201
4.99975
1.81272
1.64885
2.46715
4.45039
4.47931
4.52913
4.71769
4.74091
4.50987
4.29652
4.08389
3.94871
4.20395
4.37189
6.67732
6.27526
5.69771
5.05853
3.37691
1.57574
2.1276
4.02293
4.35539
3.77294
4.68739
1.91459
1.53421
1.80023
3.24355
3.80685
3.4822
3.59644
3.47952
3.58763
3.62388
3.53601
3.62516
3.67762
3.5893
6.66774
6.25685
5.74113
4.98115
3.35025
1.53838
1.99994
2.06299
3.34651
2.40537
2.68605
3.41135
3.30335
3.23908
4.01296
4.3875
3.9619
3.66633
3.46553
3.58526
3.67324
3.53497
6.68658
6.25862
5.78419
5.14069
1.92835
0.274047
1.26077
2.80869
3.83319
3.48935
4.28052
4.55104
4.40216
4.15306
3.93123
3.72708
3.68084
3.68271
3.56031
6.69516
6.31051
5.89154
5.20196
2.9333
2.04351
2.85289
0.221159
2.77562
3.03067
2.76587
2.93722
4.1129
4.32791
4.10006
3.93379
3.76959
3.63537
3.62887
3.67044
3.53276
6.67723
6.38544
5.86391
5.29494
6.58153
6.95219
8.96267
0.292454
3.55773
3.61077
2.93512
3.38095
4.13669
4.22345
4.04162
3.84554
3.75053
3.59117
3.62812
3.68281
3.54382
6.68665
6.38754
5.85887
5.43347
7.1254
6.94149
5.92742
5.47174
2.89496
2.28809
0.769981
0.486821
1.21832
4.29731
4.16918
3.81988
4.2315
4.28309
4.15341
4.02041
3.90148
3.79721
3.74369
3.73801
3.58725
6.70075
6.37017
5.86207
5.60018
7.64412
5.51781
4.99764
0.173785
0.136558
0.119003
0.127112
0.420574
0.869381
1.25222
1.65966
1.89993
2.15226
2.56871
2.96232
3.50196
3.93248
4.05947
3.94572
3.86384
3.64574
6.63347
6.38065
5.93426
5.98026
8.25144
5.44056
2.31322
1.20357
0.657232
0.126075
0.104534
0.113002
0.11536
0.117977
0.118914
0.119434
0.25575
1.39816
1.24575
1.19831
2.32831
3.50723
3.63592
3.66111
3.43525
6.71046
6.33927
5.99208
6.25154
8.82682
7.10368
5.29441
3.30993
2.11951
2.42329
0.139325
0.308042
2.44015
2.11612
1.32875
0.466458
0.564925
1.14942
1.30715
1.25358
2.06139
3.12024
3.55213
3.88261
3.67604
6.70288
6.38217
5.9658
6.31927
9.07055
7.46572
6.26477
5.65251
4.80497
3.94395
1.94449
2.03084
2.74111
2.6881
2.32317
2.4611
3.26147
3.15881
1.62709
1.21999
1.45959
1.3615
2.43409
4.53554
4.96448
6.6338
6.38852
6.1057
6.45562
9.28188
7.6441
6.59228
5.95943
5.46664
5.12725
4.60751
3.80892
1.68697
1.99223
2.8438
3.5686
4.0886
4.31092
3.7034
2.57573
2.55165
2.87357
5.6355
9.21013
10.1355
6.71089
6.3727
6.06992
5.85553
8.61521
8.8395
7.73355
6.90962
6.16757
5.76214
5.58001
2.64991
1.85013
2.89869
4.34668
4.44749
4.87937
8.28984
8.07604
6.91582
8.00007
9.90974
11.4017
14.541
14.5694
6.67921
6.42628
6.03347
5.90483
6.05677
7.53179
8.32067
8.15851
7.22204
7.10894
7.31795
5.40094
2.03695
2.69496
5.11178
6.50066
9.34445
12.6118
9.6947
9.36309
10.7803
13.6103
14.7489
14.9035
15.7421
6.68226
6.47665
6.08567
5.79811
5.62858
5.89507
7.93081
3.8446
3.03543
3.58837
3.56732
4.88743
4.81828
5.39596
6.68373
8.54093
10.4823
14.4351
6.97262
9.18043
11.0305
13.4275
14.3685
14.3378
15.0676
6.69663
6.44748
6.15833
5.86591
5.58226
5.4461
4.50605
0.725945
2.76035
4.56411
4.13896
4.91354
4.77819
5.73509
6.8967
7.07798
8.14349
10.9438
6.33466
8.68705
11.7198
11.7403
12.326
13.3564
13.2911
6.70153
6.43906
6.17528
5.88265
5.59045
5.55712
5.22804
5.04373
5.19593
7.02203
8.08792
9.06451
9.03961
9.1354
9.2346
8.87643
8.05863
8.05207
8.38367
8.40078
9.04973
9.31014
9.77319
11.0325
11.5186
6.73767
6.73316
6.58166
6.55117
6.80589
6.61188
8.64574
10.3851
12.377
13.6295
14.8572
16.2012
17.4713
18.2799
18.9276
19.4413
19.6401
19.5758
19.5157
19.5336
19.7662
19.4737
19.2221
19.2441
18.4626
6.7501
6.7094
6.55688
6.61791
7.72083
7.71064
7.30902
9.37681
11.5889
12.8257
13.875
14.6931
15.5493
16.8508
18.6714
19.3348
19.5963
19.6371
19.4513
19.1337
18.946
18.6863
18.4901
16.7538
17.2054
6.75326
6.69211
6.57539
6.75385
8.56471
5.49287
4.36045
5.81018
7.43954
7.70393
8.04783
8.40551
9.27768
10.7107
11.908
12.0303
12.0672
11.7104
11.2903
11.1371
11.0263
10.9121
9.70566
8.54675
10.0502
6.74504
6.69352
6.60597
6.6978
7.99253
6.22161
5.24001
6.21314
6.91134
6.87621
6.97955
5.49363
3.94101
5.04794
6.31887
6.0247
5.93369
5.92788
5.8971
5.7983
5.73078
5.55274
5.62235
5.19729
5.26592
6.73231
6.68496
6.61417
6.67496
7.93103
4.57453
4.34895
5.4054
5.55492
4.74933
5.65542
6.15298
3.84774
4.26568
5.78242
6.01549
5.81888
6.08245
6.1885
6.06951
5.82102
5.66224
5.75089
5.23954
5.04482
6.74724
6.68898
6.64199
6.7373
4.52054
2.82278
3.22456
6.82753
1.53903
2.20678
2.65531
4.40007
4.83486
5.13966
5.39899
5.53375
5.74951
6.18966
6.37471
6.18273
5.85369
5.57626
5.70286
5.4458
4.93022
6.74707
6.67842
6.64198
6.76421
4.28516
2.42375
3.64852
2.42181
0.802271
3.15355
3.75375
3.45127
5.43655
6.37337
6.37179
6.21232
6.01683
5.81943
5.75664
5.38989
4.98556
6.76065
6.68326
6.61608
6.69823
7.639
5.11283
8.31232
0.227898
2.21378
2.6616
2.49798
2.70516
5.26116
6.25653
6.18432
6.03083
5.86263
5.77123
5.73472
5.46708
4.90999
6.75601
6.6905
6.57565
6.71932
8.20529
8.3149
11.1382
0.341457
2.94991
3.19494
2.30823
3.05079
5.69319
6.26624
6.15876
5.99413
5.86573
5.6766
5.75269
5.50821
4.94912
6.75463
6.68068
6.59313
6.93118
8.60114
7.87534
7.59436
5.73215
3.09461
2.48864
1.02215
0.504498
1.92637
4.31174
3.87492
4.26567
5.85744
6.19619
6.15802
6.07806
5.97832
5.89533
5.82407
5.5609
5.03849
6.74893
6.67929
6.62473
7.32029
9.10082
7.57488
4.12674
2.69725
3.05309
3.47398
3.84799
3.74673
4.04793
4.1727
3.79072
3.424
3.52477
3.78625
4.23641
5.19975
5.8955
5.97045
5.93692
5.68082
5.12641
6.75136
6.68641
6.67632
7.96326
9.733
7.64428
5.52752
2.84807
2.67886
3.29253
3.5113
2.50665
2.78626
3.1032
2.9705
2.82073
2.89219
2.93218
2.50428
2.89518
4.41324
5.57665
5.74181
5.67568
5.2024
6.71732
6.71986
6.70965
8.06231
10.0634
7.68275
6.73042
5.98828
4.78928
4.35179
2.57381
2.53086
3.38911
3.68785
3.45634
3.21983
3.17252
3.35668
2.92489
3.03079
4.34395
5.26455
5.62359
5.71304
5.5333
6.73831
6.72363
6.72261
8.00917
10.1081
7.85507
6.97458
6.93658
6.97888
6.36629
4.89545
4.02377
4.83521
4.52867
4.45953
4.7468
5.31655
5.2181
4.8988
3.85001
4.21666
4.32252
5.28862
6.26735
6.76675
6.73652
6.72257
6.73551
7.98349
10.3647
8.07989
7.32144
7.26163
7.2073
6.96486
6.77669
5.73141
3.84042
3.67961
5.15487
6.07719
6.50474
6.71181
6.66883
6.30545
6.35196
6.65466
8.12242
11.816
12.8922
6.74326
6.70963
6.72797
7.7693
9.7074
9.51631
8.80682
8.6679
8.54498
8.56858
8.78783
7.73118
6.00095
6.33268
7.9242
10.0569
11.6516
13.019
13.6597
13.5933
13.8598
14.8477
17.5184
17.943
18.2283
6.72966
6.71072
6.67015
6.76711
6.54739
8.39172
9.53118
9.88331
8.92589
9.04632
9.24041
10.8605
9.43854
8.72122
8.05357
10.5332
13.576
15.8756
15.5935
16.45
16.6765
17.3632
18.1583
18.7619
19.1304
6.74666
6.71291
6.62588
6.6165
6.60938
6.53265
8.60808
9.89173
8.38128
7.73184
7.39242
7.87059
8.21689
8.59617
9.12496
10.3549
12.1383
16.2106
15.5563
15.5342
16.2654
17.0918
17.1108
17.4678
17.8334
6.74907
6.7129
6.63466
6.55493
6.49393
6.61296
7.15034
7.9361
8.5237
8.88885
8.70616
8.578
8.7079
9.41967
9.87026
10.1274
10.7437
12.7555
13.8396
13.7152
14.4262
14.9999
15.1304
15.4631
15.7122
6.74585
6.7161
6.65002
6.55172
6.53912
6.61814
6.70113
7.38778
8.44403
10.1631
11.2704
11.8151
11.741
11.7404
11.7772
11.3218
10.9652
10.896
10.8977
10.8734
10.9016
11.0284
11.3755
12.7963
13.3471
6.75104
6.73044
6.66553
6.79646
7.08468
7.35139
8.56398
11.1654
13.5556
15.2514
16.4088
17.744
19.184
19.8673
20.1924
20.3375
20.4916
20.5778
20.6096
20.6173
20.8712
20.5858
20.3876
20.1104
19.8247
6.76179
6.70712
6.67048
6.87162
8.17852
8.98282
9.25922
11.378
13.338
14.7406
15.7851
16.4905
17.1816
18.4771
19.8044
20.0928
20.5516
20.5677
20.387
20.0192
19.9814
19.748
19.4341
17.5264
18.3555
6.7597
6.69189
6.73129
7.09648
8.98931
8.24203
7.33345
8.06572
8.58704
8.64635
8.87869
9.11311
9.80484
10.9406
11.8783
11.9655
12.0801
11.8722
11.5484
11.4721
11.3984
11.2991
10.0364
8.89801
10.6939
6.74021
6.70014
6.75494
7.07511
8.43475
7.80053
7.16735
7.31547
7.4383
7.34907
7.32879
7.32841
6.68799
6.85779
6.85649
6.54675
6.37129
6.25129
6.16648
6.15309
6.10248
6.12591
6.04294
5.56618
5.65957
6.75414
6.70257
6.7704
7.06029
8.50838
7.54693
6.50627
7.1839
5.57459
5.1927
6.11188
7.16645
6.67352
6.71202
6.94594
6.88394
6.78714
6.81674
6.85337
6.86958
6.84707
6.82698
6.8109
6.51284
6.26055
6.75088
6.72113
6.77662
7.06986
8.80158
6.19362
5.94221
8.82416
1.57753
2.14977
2.65995
4.3295
5.9612
5.94145
5.72543
6.18064
6.6645
6.81394
6.86107
6.88489
6.84847
6.82192
6.81261
6.59284
6.36241
6.75766
6.70662
6.77294
7.05378
8.49001
5.9557
8.40144
3.50008
1.00673
2.85931
3.1057
3.17281
5.58975
6.77703
6.86775
6.87768
6.86136
6.83586
6.81348
6.6388
6.35704
6.7651
6.69302
6.74574
7.01999
8.45039
8.39806
11.6624
0.253925
1.7303
1.6627
1.82455
2.41142
5.30949
6.75898
6.85717
6.86082
6.84705
6.83287
6.82538
6.66672
6.34114
6.76834
6.68694
6.7338
7.07604
8.68714
8.61336
12.3646
0.363912
1.76036
2.10518
2.03703
2.84008
5.85058
6.79991
6.85916
6.85872
6.84781
6.82936
6.83071
6.68492
6.36155
6.76357
6.6834
6.7603
7.33831
9.01143
8.06134
6.8669
5.56097
2.87057
2.12205
0.878383
0.475886
2.80119
3.70306
3.20143
4.14419
6.34181
6.7907
6.8294
6.85735
6.86469
6.85182
6.84499
6.69012
6.40331
6.74022
6.69531
6.79533
7.80072
9.4514
7.73612
7.40236
5.29152
5.05881
5.19007
5.4054
5.54544
5.99897
5.72639
5.48913
5.54102
5.72529
5.85512
6.08165
6.50325
6.80235
6.85761
6.84926
6.75523
6.44536
6.81688
6.69924
6.81653
8.46803
10.0558
7.68346
7.29029
5.93057
5.08428
5.9925
6.16012
5.48887
5.51684
5.70005
5.40006
4.94948
4.83116
4.86791
4.82226
5.4417
6.36393
6.72026
6.76844
6.67972
6.50529
6.66442
6.80828
6.83866
8.55142
10.36
7.80517
6.84009
6.96558
6.8747
6.72337
6.08739
5.16942
5.5466
5.86349
5.88579
5.76367
5.65313
5.58407
5.38442
5.68817
6.35505
6.62722
6.73657
6.62167
6.51199
6.69943
6.79963
6.85759
8.47811
10.4848
7.98735
6.95313
7.11427
7.32354
7.24351
7.07965
6.42659
6.59412
6.37019
6.45496
6.57321
6.67577
6.65813
6.60943
6.45965
6.49577
6.51261
6.60255
6.90373
7.59102
6.78113
6.74487
6.81209
8.44627
10.8062
8.21793
7.371
7.41695
7.46324
7.49052
7.62021
8.07962
6.404
6.37764
7.00471
7.1249
7.30389
7.42152
7.61609
7.88783
7.78174
7.63851
9.08571
13.2597
14.5523
6.7961
6.71956
6.82604
8.45981
10.152
9.74592
8.99692
9.04096
9.18346
9.6189
10.1126
11.0008
10.4856
10.7385
11.8372
13.2699
14.6187
15.7164
16.6372
16.927
17.1098
17.5939
19.6581
19.9253
20.2925
6.74284
6.71991
6.79478
6.95375
6.6073
8.84366
9.68439
9.81507
10.0323
10.421
11.2364
12.7072
12.6848
12.5686
12.4277
13.6461
14.9531
17.5064
18.8318
19.1067
19.3358
19.8042
20.3816
20.9452
21.3134
6.75231
6.7122
6.73195
6.81006
6.83885
6.70752
8.68424
10.5395
10.6012
10.517
10.7299
10.8438
11.0696
11.3353
11.5492
11.9525
12.8255
15.5329
17.1896
17.6619
18.0493
18.482
18.978
19.2836
19.4639
6.74792
6.73651
6.65815
6.73376
6.80436
6.79998
7.15318
10.1873
10.7223
11.8742
11.8073
11.4223
11.3158
11.6382
11.7752
11.9501
12.1438
12.8745
13.9253
14.4406
14.8981
15.3553
15.8584
16.3194
16.4173
6.7402
6.74671
6.67581
6.70782
6.77444
6.92312
7.22947
8.06785
10.7591
12.3555
13.5273
14.2146
14.178
14.0903
13.8792
13.0984
12.3074
12.0688
11.7584
11.7678
11.5794
11.6916
11.8371
12.6318
13.3066
6.75299
6.73363
6.65314
6.83228
7.12365
7.49889
8.49236
11.5149
14.2188
16.2135
17.4218
18.9306
20.3657
21.0761
21.0939
21.1459
21.217
21.2763
21.2921
21.2871
21.4819
21.2349
21.0281
20.7247
20.5141
6.76703
6.69714
6.68292
6.90343
8.07438
8.92886
9.68905
12.0484
14.1071
15.6027
16.7438
17.5504
18.2131
19.358
20.3576
20.6543
20.7269
20.941
20.6392
20.4201
20.3052
20.2675
19.9161
18.0595
18.8917
6.75372
6.68369
6.74767
7.13642
8.93282
8.1573
7.81158
8.40933
8.67447
8.79268
9.23949
9.6676
10.2774
11.1734
11.817
11.8532
11.9802
11.8629
11.5709
11.4829
11.5136
11.5054
10.2588
9.08945
11.0306
6.75443
6.68648
6.76715
7.13257
8.49184
7.60028
7.07354
7.17376
7.38317
7.35725
7.25639
7.0539
7.04263
6.96393
6.77439
6.57555
6.38858
6.28634
6.20467
6.16413
6.15654
6.18848
6.19752
5.70076
5.83854
6.74072
6.69532
6.78037
7.1021
8.43036
7.71077
7.17333
7.81437
6.01338
5.63533
6.46199
6.99204
7.16107
7.14929
7.0532
6.96593
6.91792
6.90561
6.90737
6.92631
6.94707
6.9431
6.94524
6.84562
6.71544
6.75155
6.69973
6.78919
7.04186
8.30938
8.00118
8.24727
8.88016
1.7669
1.91508
2.7121
4.07389
5.27414
5.56373
5.77561
6.38474
6.80581
6.88922
6.90157
6.93097
6.9378
6.94209
6.93395
6.933
6.89127
6.77134
6.69377
6.77011
7.00432
8.23926
8.31494
10.8682
4.28582
0.613325
1.16113
1.92598
3.22947
5.90714
6.82632
6.89951
6.93093
6.9412
6.94358
6.94324
6.92462
6.88013
6.77682
6.68379
6.74485
7.02302
8.4317
8.79394
12.715
0.285313
0.978384
1.69834
2.14367
3.02404
5.73539
6.81053
6.89979
6.94029
6.93621
6.9436
6.9457
6.926
6.87461
6.77128
6.68158
6.75248
7.11486
8.78043
8.7062
11.6802
0.261174
0.859579
2.06879
2.48175
3.56164
6.13178
6.84179
6.91025
6.93762
6.94041
6.94454
6.93726
6.93176
6.88444
6.76634
6.67478
6.77749
7.45006
9.10626
8.01625
7.13705
5.01935
2.70936
1.99023
0.82699
0.594478
2.1841
2.82913
3.06361
4.63224
6.53841
6.86914
6.90248
6.93987
6.94636
6.94782
6.93545
6.94289
6.90751
6.76378
6.68637
6.81936
7.9128
9.54098
7.67533
7.2835
7.29299
5.89191
5.89137
5.98538
6.21045
6.36145
6.00265
6.11552
6.55242
6.7479
6.77723
6.79981
6.8721
6.94335
6.95384
6.94857
6.96895
6.94681
6.82566
6.70644
6.83366
8.45561
10.0571
7.67465
6.96067
7.10415
7.11414
7.25204
7.15123
7.04121
7.06597
6.99485
6.82149
6.66893
6.61652
6.58283
6.55864
6.72439
6.89775
6.93852
6.95013
7.00443
7.00513
6.66893
6.81485
6.86387
8.69263
10.4373
7.84048
6.75272
7.03164
7.27199
7.26968
7.16775
7.00257
6.99706
6.93546
6.87684
6.83156
6.80325
6.76177
6.70428
6.80552
6.91434
6.93387
6.97293
6.89677
6.85185
6.73502
6.78525
6.87659
8.65131
10.6441
8.05733
6.96505
7.10431
7.28012
7.28703
7.26427
7.24322
7.15898
6.99148
6.94905
6.95646
6.96548
6.95281
6.93899
6.97159
6.94085
6.92447
6.72895
7.02472
8.01727
6.76352
6.76478
6.82185
8.61879
10.9369
8.28128
7.40017
7.43895
7.46084
7.47101
7.53609
7.76064
7.78811
7.58501
7.41555
7.35157
7.42845
7.56052
7.83004
8.15025
8.03616
7.92617
9.62655
14.1422
15.6197
6.82339
6.71144
6.86631
8.63119
10.3049
9.81409
9.04154
9.07622
9.24402
9.77766
10.405
11.5313
12.4405
13.2372
14.2311
15.3172
15.9221
16.7921
17.7061
18.2678
18.6658
19.0547
21.026
21.1768
21.5516
6.69632
6.72539
6.86362
7.02316
6.79176
9.07903
9.8348
10.3193
9.94728
10.7016
11.8209
13.5335
14.2743
15.0095
15.2385
16.0723
16.9063
18.4571
19.7855
20.5458
20.9375
21.3419
21.7426
22.1229
22.5154
6.75411
6.70425
6.75378
6.85588
6.88873
6.64826
8.60625
10.2655
11.5798
11.5758
12.0823
12.3257
12.9768
13.6038
13.8604
14.1417
14.5666
15.7952
17.0938
17.9846
18.4984
18.8831
19.3962
19.6639
19.9329
6.74994
6.73374
6.65659
6.77623
6.87294
6.863
7.02655
9.89199
11.3785
12.9469
13.4511
13.6137
13.491
13.6395
13.6056
13.5737
13.5238
13.6624
14.0018
14.3575
14.6561
14.858
15.2103
15.5176
15.8606
6.73515
6.76336
6.62574
6.73051
6.8289
6.99498
7.31543
8.34163
11.2528
13.1876
14.7435
15.6278
15.7405
15.6535
15.0354
14.3691
12.8581
13.1576
12.1318
12.6914
11.7689
11.9032
11.8895
12.1183
12.3436
6.7529
6.73266
6.64845
6.80372
7.10657
7.49637
8.47031
11.8209
14.6658
16.7648
18.112
19.6112
21.1285
21.7437
21.7799
21.7318
21.7285
21.7254
21.7069
21.7043
21.6865
21.5411
21.355
21.0889
20.8762
6.76865
6.68994
6.67581
6.91727
8.02072
8.86292
9.87084
12.438
14.6215
16.1509
17.3205
18.1985
18.9037
19.8692
20.7666
21.0389
21.0591
21.084
20.7004
20.6018
20.5364
20.4585
20.0941
18.4016
19.136
6.75131
6.68442
6.74999
7.1519
8.93296
8.13561
7.84727
8.45553
8.73274
8.91123
9.45297
9.97703
10.6515
11.4748
11.8055
11.813
11.9383
11.7841
11.6102
11.5645
11.5986
11.6164
10.3596
9.16098
11.2289
6.7668
6.67892
6.76193
7.14901
8.51264
7.59342
6.94083
7.05935
7.22233
7.31425
7.14078
6.99308
6.91268
6.86431
6.74238
6.55577
6.41397
6.29891
6.23586
6.17846
6.20927
6.22986
6.23073
5.85896
6.0392
6.76623
6.68132
6.76675
7.10009
8.375
7.61601
7.07857
7.36205
7.03499
6.63215
6.94401
7.04365
7.08451
7.09841
7.03207
6.96752
6.93479
6.92455
6.92473
6.9458
6.95708
6.95678
6.98694
6.98676
6.92592
6.77359
6.68553
6.76023
7.02402
8.11677
7.7845
7.99485
7.20413
3.23586
3.16167
4.00946
5.12388
5.84015
6.10072
6.34832
6.70212
6.87891
6.9109
6.91976
6.948
6.95524
6.95767
6.96524
7.10909
7.10756
6.77537
6.68992
6.7409
6.97406
8.08778
8.16714
9.23521
6.85256
2.6068
2.32407
2.01301
2.13018
2.70906
3.33741
3.75562
5.02826
6.52842
6.87833
6.91709
6.94797
6.95597
6.95413
6.96434
7.02843
7.09505
6.778
6.67984
6.73125
7.00093
8.39544
8.5145
10.5379
5.07661
2.7969
2.30152
1.89498
1.86515
3.09965
4.32271
4.25607
5.02421
6.46682
6.86678
6.91673
6.94663
6.95367
6.95705
6.96651
7.00898
7.0931
6.76983
6.6784
6.75294
7.12142
8.77304
8.42781
8.2791
3.514
2.63371
2.09384
1.83367
1.93098
3.83043
4.51819
4.4594
5.35809
6.59911
6.88131
6.92085
6.94924
6.95516
6.95848
6.96707
7.01325
7.09784
6.766
6.67236
6.78021
7.46244
9.1522
7.90764
7.41541
4.7459
3.20993
3.13354
3.29724
3.59719
4.47367
4.42706
4.73773
5.93957
6.76467
6.89883
6.92444
6.95123
6.95846
6.95633
6.96591
7.03351
7.11242
6.75607
6.69299
6.8475
7.88237
9.53473
7.60272
7.05695
7.11464
6.77939
6.61162
6.66801
6.79213
6.82722
6.57971
6.623
6.82238
6.89841
6.91239
6.91689
6.95048
6.95907
6.96242
6.97617
7.08491
7.14745
6.8318
6.70871
6.82998
8.44349
10.0387
7.67431
6.77313
7.06554
7.30714
7.32779
7.22969
7.20079
7.1981
7.12197
7.00777
6.94054
6.92174
6.91809
6.90813
6.93664
6.96102
6.96969
6.9871
7.16716
7.22507
6.67659
6.81465
6.87025
8.76233
10.522
7.89776
6.77102
6.99846
7.20718
7.26368
7.20918
7.17436
7.14152
7.06052
6.98653
6.95576
6.94428
6.93688
6.92478
6.95742
6.96699
6.97037
7.02537
7.01176
7.02665
6.7881
6.75764
6.87195
8.71069
10.6851
8.10972
6.9886
7.11628
7.26896
7.28843
7.25727
7.22473
7.13264
7.03738
6.99196
6.9871
6.97649
6.96879
6.96446
6.97382
6.95956
6.9494
6.64445
7.01823
8.40508
6.72453
6.79103
6.84766
8.72446
10.9905
8.32717
7.4315
7.46917
7.45995
7.44504
7.45771
7.50192
7.58917
7.58605
7.47529
7.46078
7.50915
7.64977
7.97182
8.29883
8.22556
8.1436
9.94751
14.7569
16.391
6.80031
6.72818
6.85308
8.12298
10.4915
9.92648
9.11933
9.12491
9.30668
9.76942
10.4956
11.6873
12.9337
14.2042
15.4763
16.5151
16.9666
17.6009
18.4831
19.1351
19.5479
19.7997
21.7329
21.9641
22.3151
6.698
6.72971
6.87266
7.06239
6.92265
9.41274
10.0896
10.4595
10.1535
10.9231
12.1022
13.9746
15.0412
16.261
17.0222
17.8089
18.4524
19.4994
20.5327
21.2531
21.6798
22.1555
22.4488
22.7245
23.057
6.75449
6.70392
6.76289
6.86865
6.88633
6.84455
8.93785
10.496
11.8694
11.99
12.5078
13.0329
13.8507
14.6209
15.0974
15.9763
16.1855
16.8096
17.416
18.1085
18.5086
18.8882
19.3068
19.399
19.7928
6.75461
6.72497
6.65068
6.82847
6.90188
6.89873
7.41321
9.94344
11.6139
13.3612
14.1355
14.4619
14.6198
14.7304
14.5822
14.634
14.3086
14.7887
14.4645
14.6551
14.652
14.5556
14.4085
14.4755
14.8537
6.73543
6.76352
6.61934
6.73672
6.84418
7.0023
7.3501
8.55148
11.4606
13.5699
15.3689
16.3272
16.4888
16.4053
15.4002
14.9396
13.0451
13.7726
12.3783
13.1209
11.8226
11.9412
12.0091
11.6612
11.8162
6.75216
6.73753
6.64304
6.83637
7.12814
7.50433
8.57721
12.1803
14.9766
17.0272
18.516
20.0289
21.486
22.0748
21.9873
21.908
21.8769
21.8444
21.8474
22.0264
21.8111
21.6497
21.453
21.3038
20.9789
6.76795
6.69077
6.66631
6.92532
8.09571
8.92738
10.2464
12.8849
15.1263
16.6266
17.7335
18.5848
19.3117
19.955
20.6132
20.7997
20.8659
20.7112
20.7871
20.823
20.554
20.4412
20.0259
18.7113
19.2074
6.74113
6.68575
6.75083
7.17572
9.03204
8.273
8.08564
8.73028
8.98548
9.11484
9.619
10.1255
10.9338
11.6876
11.8087
11.7796
11.783
11.67
11.6823
11.6288
11.5901
11.6156
10.3029
9.27777
11.3934
6.75648
6.68045
6.76003
7.20227
8.67304
7.7368
7.0771
7.11266
7.21112
7.36924
7.15782
7.00301
6.9613
6.94625
6.73356
6.5763
6.48746
6.38239
6.33341
6.30504
6.30617
6.33568
6.41123
6.21149
6.37491
6.76971
6.6772
6.75808
7.12237
8.45128
7.68616
7.08505
7.20167
7.55463
7.42909
7.32243
7.20104
7.14966
7.13642
7.09216
7.04072
7.01144
6.99826
6.99552
6.99839
7.00392
7.00508
7.09328
7.10018
7.13086
6.77652
6.68138
6.7421
7.03587
8.20168
7.71367
7.52748
8.38501
5.82717
5.4884
6.21719
6.76711
6.93795
6.97795
6.95908
6.98145
6.98987
6.9895
6.99155
6.99651
7.00477
7.00736
7.08308
7.20817
7.23622
6.77683
6.68288
6.72781
6.98824
8.17788
8.01562
8.11441
7.91358
5.16836
4.26331
4.69868
5.81243
6.34133
6.27158
6.24235
6.60766
6.91362
6.97739
6.99
6.99897
7.00408
7.00661
7.07833
7.15983
7.22622
6.77592
6.67609
6.72936
7.01962
8.44349
8.21493
8.4736
8.73064
5.38756
4.28033
4.55498
5.59064
6.65691
6.69227
6.38519
6.58305
6.88986
6.97033
6.98777
7.00031
7.00348
7.00386
7.07955
7.14688
7.22355
6.74906
6.6821
6.75886
7.19137
8.85344
8.12712
7.69148
6.21896
4.54158
4.03099
4.70732
5.73539
6.89657
6.73027
6.45206
6.65811
6.90819
6.97524
6.99154
7.00142
7.00335
7.00753
7.07995
7.14506
7.22506
6.76036
6.67656
6.78819
7.51387
9.28192
7.88245
7.53466
7.3392
5.47671
5.55062
6.09268
6.54187
6.83609
6.5832
6.55538
6.80905
6.95268
6.98321
6.99326
7.00489
7.00501
7.00952
7.08001
7.1486
7.2317
6.70114
6.72439
6.8552
7.89851
9.6068
7.71877
6.9717