/*--------------------------------*- C++ -*----------------------------------*\
  =========                 |
  \\      /  F ield         | OpenFOAM: The Open Source CFD Toolbox
   \\    /   O peration     | Website:  https://openfoam.org
    \\  /    A nd           | Version:  6
     \\/     M anipulation  |
\*---------------------------------------------------------------------------*/
FoamFile
{
    version     2.0;
    format      ascii;
    class       volScalarField;
    location    "20";
    object      p;
}
// * * * * * * * * * * * * * * * * * * * * * * * * * * * * * * * * * * * * * //

dimensions      [0 2 -2 0 0 0 0];

internalField   nonuniform List<scalar> 
230684
(
320.056
319.283
317.894
315.39
308.998
295.595
286.81
289.241
278.27
262.626
244.667
224.752
205.334
187.905
171.793
155.603
139.018
122.252
105.241
87.642
69.3107
50.8139
33.3297
17.5413
6.22148
321.454
321.224
320.567
321.041
313.596
298.276
276.997
295.2
280.623
263.55
244.985
224.971
206.979
191.442
176.331
160.081
143.339
126.352
108.973
90.7871
71.5937
51.9489
31.9624
12.4458
4.67286
323.423
323.523
324.306
330.001
349.021
262.143
281.079
286.042
282.761
265.006
248.911
222.895
206.71
196.203
183.99
165.969
149.774
131.332
112.02
92.096
70.5816
48.033
22.4308
9.23195
3.31441
325.745
325.581
327.686
322.046
343.118
254.119
272.854
295.708
281.426
270.164
269.701
174.382
166.563
193.85
179.105
166.194
152.884
132.959
110.298
88.3784
65.3778
41.9794
17.6506
6.64996
2.09843
328.375
329.275
331.582
333.862
327.889
278.08
280.399
287.376
270.284
262.841
276.723
137.6
164.386
204.52
175.958
171.382
152.108
132.39
108.812
86.0651
62.6068
39.1941
15.6624
5.63591
1.74799
330.585
332.002
336.3
348.105
360.222
287.419
318.061
265.865
258.86
252.014
249.702
202.794
189.143
199.021
168.04
168.909
156.35
130.955
107.118
84.8347
61.3824
37.9931
15.2563
5.33257
1.68179
331.302
332.473
337.556
352.876
365.795
317.899
339.204
325.165
255.895
297.434
240.817
198.846
204.532
187.546
183.967
169.622
152.164
128.769
107.44
84.4962
60.6603
37.5421
15.2705
5.33987
1.73576
330.921
331.457
334.401
341.699
343.733
348.896
361.248
284.652
232.347
324.735
228.008
225.012
203.627
193.64
186.553
171.424
151.888
128.714
106.812
84.1479
60.8094
37.8652
15.3489
5.30273
1.71648
330.438
330.685
332.382
337.033
343.695
351.751
352.596
150.27
207.199
301.741
236.184
228.138
192.859
198.662
187.386
172.352
152.529
129.246
107.386
84.2874
61.3799
38.4444
15.4878
5.22835
1.68959
330.185
330.308
331.452
335.689
343.145
346.715
336.885
265.821
235.125
244.151
245.835
226.857
198.416
199.676
183.647
168.225
150.867
130.562
108.743
84.9683
61.8421
38.6674
15.3644
5.23558
1.68494
330.259
330.249
331.035
335.939
354.721
339.946
362.701
250.904
257.122
257.395
244.192
225.435
209.505
195.535
180.83
163.255
148.112
132.952
111.388
86.4552
62.7871
39.5977
15.4865
5.77232
1.90023
330.805
330.595
330.553
333.281
340.714
348.68
308.799
324.148
267.337
288.085
261.229
249.107
239.826
193.742
190.134
173.305
136.93
133.804
115.528
86.4858
66.8638
38.6436
17.0586
6.30545
2.27246
332.104
331.817
331.069
331.907
337.216
334.823
321.606
324.652
280.15
298.146
256.01
235.743
236.708
231.57
194.248
220.399
147.994
141.716
105.059
82.1476
62.0935
36.7529
18.3263
8.92094
1.60762
334.127
333.859
333.043
333.253
338.511
335.301
325.433
315.117
302.43
296.398
282.633
262.629
225.632
215.098
186.846
163.066
163.215
148.9
125.188
82.9148
50.0784
30.271
25.2638
10.5
1.55297
336.498
336.424
336.187
336.66
342.071
340.637
331.693
323.521
313.876
304.433
307.342
329.467
204.077
244.329
184.95
178.584
163.937
140.333
113.934
84.1367
61.0201
37.9829
25.4658
10.6021
1.96958
338.296
338.399
339.051
341.391
345.645
345.627
342.993
333.54
322.159
314.813
319.941
337.188
200.762
235.212
214.789
171.983
167.106
147.918
126.571
79.8059
76.1836
37.0592
18.0473
11.0017
3.5586
338.915
338.93
339.8
341.076
341.628
339.565
337.344
330.587
322.948
316.98
308.445
322.693
201.473
223.051
194.901
188.238
174.895
156.846
112.748
80.7483
64.3764
43.2657
24.6726
13.8882
5.15585
338.747
338.567
338.747
338.894
338.557
338.452
336.525
321.47
328.178
310.615
297.931
272.107
215.224
200.563
214.676
191.06
147.752
189.419
66.7825
60.7206
51.3729
41.7455
28.8511
16.0437
5.8215
338.366
338.078
337.827
337.403
336.516
335.081
335.316
301.793
332.393
313.085
306.719
315.942
197.979
226.437
208.293
199.006
193.269
201.536
44.7036
47.7192
55.4887
41.7538
31.1638
18.831
6.63547
338.09
337.733
337.245
336.483
335.122
332.606
328.977
320.627
315.196
306.207
290.044
271.111
239.857
224.873
210.417
194.284
179.721
146.986
67.0384
60.1447
55.7047
46.5304
33.7111
20.1096
6.04746
319.803
319.105
317.585
314.631
308.985
295.923
288.626
289.666
277.938
262.731
245.204
225.366
205.848
188.165
171.785
155.533
139.018
122.26
105.205
87.5158
69.1039
50.5362
33.0318
17.4064
5.94569
321.086
320.906
320.135
319.941
314.518
300.082
249.584
293.582
280.005
263.68
245.604
225.926
208.102
192.256
176.713
160.183
143.229
126.027
108.468
90.1988
70.9511
51.302
31.1613
12.665
5.00056
322.925
323.021
323.58
328.035
356.561
285.002
280.658
264.045
248.669
223.258
208.864
196.304
182.192
165.053
148.815
130.725
111.66
91.6047
70.0099
47.4176
21.6778
9.26208
3.71257
325.141
324.995
327.238
325.369
345.517
289.252
278.262
266.816
265.347
184.438
181.184
166.051
150.998
131.661
109.781
87.855
64.9732
41.4305
17.0548
6.87712
2.37981
327.629
328.493
330.222
332.133
327.754
276.413
285.937
280.839
267.232
260.534
263.254
167.792
168.429
151.108
131.177
108.27
85.8042
62.829
39.0196
15.2711
5.85343
1.97952
329.743
331.17
334.933
345.725
368.117
241.088
250.309
246.481
208.053
195.212
198.099
168.396
152.908
130.718
107.54
84.3244
61.1932
37.819
14.7244
5.52505
1.84708
330.555
331.803
336.318
350.639
381.603
289.139
205.744
191.024
183.169
169.398
150.646
129.007
107.297
83.8995
60.4077
37.0682
14.6414
5.46939
1.84124
330.366
331.025
333.823
340.598
343.333
347.568
360.694
371.829
194.224
194.473
187.834
171.429
150.71
128.505
106.652
83.7397
60.6359
37.4958
14.717
5.46048
1.83531
330.011
330.356
332.036
336.419
344.779
349.282
353.463
190.89
198.514
188.33
172.204
151.296
129.008
107.091
84.1589
61.1938
38.0179
14.7604
5.42982
1.81553
329.819
330
331.12
335.069
343.966
343.975
335.056
244.594
232.493
252.102
246.445
224.995
193.484
198.832
184.216
168.598
150.308
130.251
108.049
84.8581
61.6632
38.1728
14.6786
5.43426
1.79511
329.947
329.947
330.638
334.809
351.695
337.872
371.219
223.299
207.806
196.557
181.102
164.545
147.35
132.731
110.912
86.9492
62.6869
38.8361
14.7998
5.68994
1.93374
330.561
330.331
330.207
332.575
340.328
339.061
310.922
315.298
261.405
125.073
135.374
114.1
87.3718
64.1027
38.6765
15.9162
6.10656
2.26622
331.911
331.616
330.797
331.49
337.756
332.596
322.55
339.176
224.478
237.767
229.44
194.752
191.658
138.018
141.212
81.3726
63.8417
37.7628
16.8642
7.33985
1.92336
333.977
333.749
332.863
332.853
339.09
334.031
325.585
314.662
302.901
293.827
275.896
255.861
224.653
216.748
192.293
160.798
161.515
145.061
137.23
76.0127
22.6874
8.79769
2.35851
336.37
336.483
336.104
336.312
342.473
339.401
331.761
323.147
312.892
302.507
300.422
328.732
208.3
193.933
178.909
161.567
140.174
113.923
85.2631
63.3533
40.4053
27.0287
9.54986
2.89943
338.171
338.54
339.136
341.817
346.734
345.48
341.285
332.02
320.828
311.83
311.361
331.913
209.82
210.685
145.472
129.914
16.6537
12.2587
4.40601
338.805
339.016
340.035
341.43
341.936
338.534
335.629
329.9
321.392
314.45
302.842
313.073
218.782
142.059
159.009
102.795
79.0865
62.1898
44.1921
26.335
14.7431
5.63596
338.656
338.606
338.815
338.898
338.195
337.3
334.721
320.469
327.925
309.044
294.668
271.192
220.548
188.258
212.573
147.531
202.268
54.1226
54.7517
43.6147
30.7839
17.4402
6.32103
338.279
338.109
337.871
337.389
336.346
334.511
334.42
284.501
339.362
312.166
304.045
325.853
226.978
208.237
199.965
190.031
223.981
44.3046
57.0852
44.5034
32.433
19.1506
6.40205
338
337.759
337.292
336.483
335.119
332.622
328.805
320.623
315.309
305.776
288.854
270.008
242.684
225.388
210.054
192.377
177.504
147.418
75.3503
63.7588
57.9022
48.0198
34.231
20.394
5.81649
319.451
318.723
316.948
313.659
308.422
297.47
290.645
288.669
277.827
263.821
246.871
227.197
207.478
189.357
172.449
155.9
139.226
122.284
104.999
87.0934
68.599
50.0176
32.52
17.0968
5.71673
320.606
320.331
319.247
317.475
310.326
297.678
288.654
290.18
279.85
264.91
247.449
228.003
209.737
193.013
176.624
159.893
142.858
125.531
107.925
89.7032
70.5845
50.9031
30.6228
12.1931
4.94216
322.261
322.206
322.162
323.273
321.409
285.642
289.585
287.543
278.593
263.635
246.852
225.297
210.013
195.772
180.643
163.98
147.825
130.139
111.212
91.2179
69.7354
46.757
20.5447
8.75774
3.59153
324.323
324.551
324.819
325.072
326.86
278.611
284.045
285.083
274.907
263.625
251.755
205.503
204.605
192.179
179.756
164.647
149.377
130.654
109.496
87.7222
64.7945
40.8334
16.1479
6.58138
2.25483
326.616
327.159
328.063
329.201
324.168
289.995
291.204
279.876
263.092
256.59
250.603
206.65
200.285
193.615
177.301
165.212
149.428
130.095
107.928
85.3842
62.4312
38.4946
14.5772
5.60355
1.84003
328.64
329.708
332.415
339.656
346.842
205.31
240.294
241.493
215.328
201.111
195.422
177.54
165.99
150.262
130.041
107.15
83.9718
60.8591
37.3203
13.9351
5.26431
1.69511
329.57
330.565
333.996
343.879
352.43
309.093
189.326
191.985
183.591
168.33
149.989
129.139
107.036
83.443
60.1002
36.5615
13.7155
5.16625
1.6661
329.599
330.184
332.546
338.268
341.956
346.383
357.377
366.458
190.744
197.93
189.445
170.955
150.098
128.366
106.398
83.3584
60.2769
36.8164
13.7731
5.15217
1.65956
329.404
329.716
331.213
335.585
343.917
347.157
351.267
200.244
189.731
201.843
189.83
171.443
150.487
128.698
106.591
83.9657
60.8472
37.2283
13.8306
5.13717
1.64985
329.306
329.43
330.359
334.316
342.239
340.291
326.909
243.118
246.309
256.915
246.147
220.827
199.969
198.506
186.113
169.171
150.145
129.784
107.671
84.7776
61.3585
37.4399
13.7864
5.12231
1.62901
329.517
329.432
329.835
333.449
340.826
336.123
338.852
260.957
273.854
262.653
248.393
226.98
213.622
201.442
184.837
167.056
148.729
131.706
110.463
86.5367
62.2719
38.0361
13.8767
5.24202
1.70846
330.237
329.938
329.56
331.918
337.703
331.025
313.789
297.104
284.367
281.316
255.278
233.575
227.743
211.292
191.577
172.338
131.239
133.709
111.98
87.5628
63.5029
38.2478
14.4721
5.46456
1.86758
331.685
331.363
330.389
331.487
336.579
330.914
321.339
309.59
295.712
302.849
249.83
226.645
235.38
217.973
195.635
182.177
151.29
137.994
107.293
85.0497
63.5717
38.3804
14.8626
5.43999
1.83694
333.853
333.625
332.635
333.026
338.353
333.773
325.59
315.002
303.548
290.961
272.942
253.708
229.681
215.536
195.151
176.441
158.044
139.374
110.953
85.6347
62.6673
39.5082
16.1739
6.19799
2.15534
336.355
336.595
336.129
336.515
342.77
339.751
332.135
322.971
311.955
300.011
288.903
257.01
212.418
212.335
196.829
177.9
159.351
138.233
112.064
87.2007
64.4978
40.2683
17.5758
8.0957
2.92899
338.208
338.746
339.429
342.949
348.834
345.988
340.354
330.587
319.018
307.354
293.724
249.204
211.523
213.285
203.339
174.987
156.497
140.41
110.548
82.7271
62.8637
41.3246
23.0479
12.3464
4.67385
338.832
339.151
340.284
341.805
342.296
338.299
334.722
328.86
319.345
306.366
295.4
254.879
200.925
214.454
209.919
178.586
158.24
146.383
98.7986
78.0934
62.2809
43.0398
29.186
16.4302
6.0555
338.66
338.682
338.893
338.915
337.956
336.293
331.01
319.587
325.07
308.568
292.33
265.238
230.077
218.426
206.849
185.941
170.229
154.203
84.2155
68.8385
61.1606
45.6398
32.5851
18.887
6.64166
338.272
338.163
337.91
337.372
336.171
333.702
331.289
299.438
330.817
310.5
298.584
270.987
235.443
225.719
207.758
191.131
181.866
145.62
71.8334
67.018
59.5403
47.3297
33.7092
19.9569
6.52517
337.99
337.806
337.314
336.478
335.117
332.524
328.265
321.003
315.498
305.81
289.12
267.502
244.419
226.673
209.468
190.021
171.954
132.042
86.2514
72.1831
61.0388
49.6605
35.3602
21.353
6.13293
319.024
318.247
316.295
312.865
306.805
298.175
291.6
287.232
278.121
265.199
248.744
229.225
209.198
190.379
172.783
155.927
139.089
121.941
104.413
86.4047
67.9681
49.4757
32.0582
16.8324
5.55438
320.048
319.636
318.291
315.543
310.532
300.043
293.729
289.817
279.916
266.158
249.219
229.997
211.292
193.719
176.561
159.676
142.545
125.049
107.391
89.1912
70.2626
50.5355
30.2351
11.8599
4.9138
321.506
321.227
320.598
319.565
315.847
298.6
293.455
287.573
276.645
262.802
246.546
227.496
211.319
196.032
179.941
163.499
147.039
129.415
110.667
90.8529
69.606
46.3209
19.8973
8.34582
3.43723
323.364
323.246
322.886
322.541
319.964
297.652
290.932
284.766
273.519
261.705
246.999
221.683
207.964
194.765
179.778
164.306
148.288
129.692
109.207
87.5883
64.7423
40.4164
15.4513
6.25839
2.13454
325.457
325.613
325.754
326.231
321.903
301.831
295.797
281.278
260.928
254.095
244.858
220.262
205.171
194.771
179.312
164.587
148.327
129.34
107.755
85.16
62.2241
37.9989
13.9534
5.32417
1.72576
327.366
327.926
329.355
332.886
327.375
306.261
309.854
272.489
222.657
237.719
239.052
219.736
204.735
194.613
180.084
165.552
149.044
129.147
106.928
83.8589
60.6088
36.747
13.2681
4.97918
1.57688
328.405
328.995
331.082
336.276
331.593
326.722
338.206
343.106
189.317
194.836
183.958
168.272
149.691
128.985
106.709
83.2355
59.8726
36.0019
12.9898
4.86721
1.54187
328.668
329.045
330.733
335.411
339.864
344.702
354.776
363.862
187.267
201.713
189.952
170.954
150.105
128.359
106.117
83.0616
59.886
36.1274
13.0228
4.85358
1.53905
328.656
328.83
329.965
334.33
342.007
344.805
348.079
196.34
190.484
204.144
190.304
171.331
150.332
128.539
106.254
83.7142
60.5011
36.6125
13.1216
4.85375
1.54088
328.684
328.665
329.261
333.195
339.839
336.437
319.151
253.126
256.516
257.992
245.689
213.072
207.018
200.083
187.19
169.72
150.157
129.454
107.484
84.6248
61.0313
36.806
13.1353
4.8326
1.52359
329.005
328.772
328.787
332.097
337.446
331.885
315.895
276.881
272.527
264.885
248.965
231.372
217.306
202.87
186.664
168.634
149.417
130.768
109.715
86.1604
61.8933
37.4415
13.1421
4.86511
1.55458
329.86
329.449
328.74
331.121
335.641
328.815
313.691
296.216
287.465
276.998
255.278
236.209
225.316
209.074
190.315
171.082
148.878
131.791
111.184
87.2546
63.1295
37.7165
13.3367
4.94841
1.60511
331.437
331.059
329.841
331.32
335.584
329.934
320.2
307.607
295.991
284.731
258.956
242.343
231.658
213.913
193.828
174.724
152.959
134.348
110.643
86.6958
63.7223
38.2818
13.6174
5.14318
1.65714
333.746
333.489
332.353
333.15
337.837
333.531
325.594
315.095
303.199
289.236
271.407
252.145
231.273
214.775
195.26
176.286
156.571
136.273
110.716
86.7938
63.8099
39.3105
14.543
6.05259
2.16317
336.393
336.683
336.189
336.936
343.254
339.909
332.25
322.738
311.057
297.614
281.605
254.624
225.438
213.841
196.539
177.319
157.659
136.389
111.601
87.4138
64.7575
40.8783
16.8733
8.18506
3.20915
338.308
338.941
339.83
344.067
350.077
346.235
339.696
329.727
317.679
303.76
284.891
250.315
221.935
212.752
198.598
175.966
155.808
136.783
109.483
83.8934
62.9736
41.9959
23.4662
13.6437
5.06902
338.913
339.295
340.544
342.218
342.781
339.034
332.142
324.099
317.146
303.694
283.038
252.627
225.685
214.277
204.067
179.062
156.698
143.399
103.728
76.5742
61.7512
45.1172
30.4756
17.8919
6.3989
338.704
338.754
339
339.022
337.967
334.473
329.93
322.948
320.613
307.585
288.872
263.846
237.694
220.919
203.129
183.031
162.944
146.153
95.0323
74.5231
63.3865
48.5489
34.3248
20.2856
6.97818
338.292
338.202
337.963
337.407
336.056
333.089
327.825
320.66
319.695
308.435
290.679
267.781
243.363
225.888
207.397
187.694
164.204
141.305
89.8834
74.24
62.7201
49.5557
35.1889
21.1373
6.85013
338
337.829
337.345
336.519
335.108
332.373
327.844
321.415
315.529
305.571
289.625
269.037
246.841
227.751
208.809
187.425
160.469
128.069
96.589
78.3029
64.399
51.0927
36.5485
22.4028
6.61308
318.598
317.798
315.762
312.441
307.538
300.148
292.846
286.953
278.402
266.139
250.143
230.821
210.581
191.035
172.873
155.735
138.724
121.384
103.722
85.708
67.3627
49.0095
31.6955
16.6399
5.40684
319.494
318.999
317.501
314.392
311.001
302.902
296.05
290.041
280.191
267.012
250.445
231.519
212.496
194.205
176.445
159.404
142.17
124.562
106.911
88.7363
69.9496
50.2526
29.9969
11.6688
4.85054
320.758
320.322
319.316
317.435
315.496
304.835
296.455
287.925
276.195
262.573
246.723
229.191
212.631
196.469
179.784
163.187
146.463
128.72
110.182
90.6546
69.4669
46.1749
19.545
8.1
3.32504
322.404
322.064
321.25
320.51
318.723
304.473
294.577
285.237
273.208
260.955
246.024
226.573
210.455
195.601
180.171
164.06
147.413
128.806
108.784
87.4395
64.7011
40.1368
15.0128
6.03107
2.0275
324.3
324.159
323.708
323.845
321.933
308.35
298.75
282.158
261.894
254.099
243.108
224.428
208.613
195.482
180.447
164.551
147.566
128.483
107.446
85.1309
62.0267
37.676
13.4973
5.10434
1.62183
326.082
326.231
326.654
328.456
326.425
315.928
313.372
274.983
223.521
243.706
238.197
222.016
207.462
195.227
181.167
165.58
148.227
128.35
106.586
83.7946
60.5453
36.2136
12.7712
4.75407
1.47247
327.203
327.449
328.464
331.703
332.244
330.697
337.958
344.684
199.759
196.827
183.817
168.284
149.404
128.675
106.419
83.2058
59.7602
35.5694
12.481
4.6371
1.43709
327.677
327.841
328.863
332.78
338.401
342.281
349.625
359.782
180.763
200.678
188.894
170.555
150.054
128.281
105.895
82.8459
59.5415
35.5794
12.5074
4.62861
1.43673
327.852
327.868
328.569
332.636
339.768
341.303
342.187
185.523
189.246
203.096
189.479
170.91
150.189
128.486
106.058
83.5149
60.1541
36.0966
12.6527
4.63789
1.43791
328.023
327.857
328.06
331.634
337.429
332.744
315.282
260.26
263.233
260.999
245.813
204.418
214
201.226
187.677
170.139
150.187
129.178
107.175
84.3921
60.7751
36.3906
12.7145
4.6183
1.42614
328.477
328.107
327.735
330.62
335.154
328.408
311.731
286.666
275.46
266.152
250.42
232.971
219.091
204.001
187.811
169.614
150.044
130.303
108.785
85.5841
61.4937
36.8517
12.6367
4.61782
1.43721
329.482
328.968
327.935
330.107
334.102
327.374
314.242
298.839
288.215
275.25
257.014
239.585
225.393
208.598
190.347
171.095
150.584
131.24
110.169
86.7456
62.379
37.0576
12.6477
4.66859
1.46333
331.207
330.772
329.322
330.796
334.754
329.255
319.893
307.968
295.958
281.883
262.486
245.867
230.573
212.549
193.211
173.499
153.048
133.008
110.542
87.0925
63.2749
37.7816
12.9298
4.97048
1.57628
333.668
333.382
332.11
333.044
337.462
333.273
325.497
315.029
302.834
288.274
270.68
251.637
232.188
214.341
195.053
175.66
155.728
134.806
111.028
87.4
63.7576
38.6717
13.8061
6.00484
2.18319
336.461
336.794
336.284
337.284
343.587
339.865
332.137
322.328
310.054
295.619
277.777
254.135
230.777
214.144
195.925
176.498
156.378
134.888
111.307
87.6392
64.6556
40.657
16.7761
8.31023
3.39412
338.446
339.159
340.234
344.91
350.788
346.359
339.276
329.143
316.636
301.268
280.906
253.252
227.921
212.564
195.921
175.584
155.251
134.091
108.892
84.635
63.4522
42.396
23.9802
14.3349
5.24502
339.028
339.463
340.805
342.579
343.143
339.402
332.2
324.5
316.341
302.211
282.01
255.772
230.706
214.107
196.172
175.214
153.981
129.19
100.661
79.0645
62.6731
46.2818
31.2588
18.7066
6.57197
338.774
338.852
339.136
339.149
338.02
334.579
329.308
323.133
317.732
306.184
288.07
265.217
241.344
221.934
202.457
181.169
158.539
129.521
98.1728
78.4486
64.6442
49.8328
35.2038
21.0766
7.17199
338.334
338.265
338.047
337.461
335.988
332.917
328.023
322.146
317.281
307.135
290.582
269.298
246.289
226.504
206.671
185.074
160.297
129.412
98.2384
78.7689
65.0474
50.7408
35.9752
21.8253
7.10379
338.029
337.876
337.411
336.571
335.065
332.222
327.673
321.554
314.983
305.054
289.836
270.258
248.743
228.492
208.067
185.567
159.471
130.123
101.969
82.2229
66.6182
51.8317
36.9804
22.8492
7.05307
318.218
317.418
315.373
312.248
308.098
301.553
293.839
286.937
278.427
266.687
251.102
231.944
211.381
191.282
172.712
155.36
138.224
120.806
103.142
85.1822
66.9177
48.6823
31.4153
16.4727
5.28193
319.008
318.482
316.915
313.758
311.426
304.737
297.522
290.406
280.318
267.355
251.149
232.465
213.24
194.407
176.263
159.063
141.779
124.165
106.549
88.4173
69.6595
50.0481
29.811
11.5042
4.76016
320.102
319.58
318.377
316.289
315.727
307.58
298.262
288.45
276.192
262.503
246.961
230.335
213.627
196.939
179.801
163.015
146.14
128.156
109.89
90.4613
69.2653
46.0852
19.322
7.93516
3.23403
321.555
321.09
320.008
319.208
318.708
307.338
296.543
285.868
273.46
260.856
246.114
228.742
212.017
196.21
180.486
163.845
146.767
128.183
108.381
87.3224
64.5289
40.0297
14.7376
5.85228
1.92673
323.263
322.939
322.082
322.166
322.096
311.122
299.861
282.806
264.355
255.105
242.976
226.584
210.69
196.256
180.993
164.549
146.982
127.765
107.058
85.094
61.8195
37.4324
13.1875
4.93474
1.53374
324.921
324.807
324.545
325.791
326.589
318.757
311.366
274.148
236.825
248.977
238.746
223.724
209.75
196.231
181.667
165.541
147.576
127.66
106.228
83.7447
60.3924
35.7968
12.4487
4.58076
1.38282
326.095
326.099
326.355
328.876
331.977
330.093
330.286
333.753
206.662
198.085
183.278
167.826
148.743
128.229
106.155
83.1471
59.6825
35.1907
12.1617
4.46274
1.34719
326.734
326.726
327.165
330.558
336.386
337.746
337.891
345.17
174.072
196.525
186.357
169.541
149.455
127.997
105.714
82.6845
59.2237
35.1429
12.1869
4.46059
1.35136
327.081
326.959
327.211
330.773
337.177
336.431
331.7
181.58
192.557
199.239
187.869
170.071
149.824
128.251
105.838
83.2816
59.8367
35.7178
12.3548
4.47983
1.35461
327.398
327.112
326.922
330.029
335.114
329.363
312.515
268.572
267.854
263.13
246.723
210.305
216.785
202.092
187.695
169.99
150.001
128.931
106.848
84.0408
60.6261
36.1093
12.4206
4.4609
1.34362
327.993
327.522
326.803
329.249
333.285
326.072
311.459
291.655
278.231
267.306
251.837
235.013
220.654
205.015
188.563
170.139
150.393
130.088
108.065
84.9559
61.1418
36.3077
12.282
4.44787
1.34329
329.148
328.565
327.246
329.122
332.844
326.291
314.86
301.193
289.016
275.209
258.313
241.642
226.009
208.915
190.68
171.34
151.285
131.008
109.273
86.0407
61.7635
36.4597
12.2555
4.49835
1.36323
331.023
330.549
328.903
330.22
334.008
328.736
319.858
308.603
296.165
281.582
264.157
247.254
230.583
212.312
193.15
173.261
153.134
132.41
110.116
86.9348
62.8029
37.3658
12.5703
4.86375
1.5205
333.632
333.326
331.942
332.873
337.183
333.006
325.373
315.001
302.481
287.745
270.388
251.673
232.73
214.21
194.789
175.17
155.173
133.938
110.926
87.5942
63.6032
38.2398
13.5103
5.98387
2.20296
336.56
336.928
336.405
337.516
343.738
339.654
331.878
321.8
309.13
294.083
275.831
254.309
232.912
214.246
195.319
175.757
155.457
133.799
110.991
87.8297
64.7366
40.5922
16.8118
8.3864
3.52031
338.612
339.389
340.597
345.558
351.217
346.382
338.966
328.638
315.698
299.597
279.009
254.576
231.13
212.636
194.307
174.587
154.246
132.4
108.524
85.3758
64.2106
42.9181
24.4649
14.6271
5.33238
339.166
339.639
341.053
342.911
343.392
339.496
332.15
324.571
315.666
301.05
281.251
257.422
233.793
214.513
195.338
174.348
152.628
128.692
102.776
81.2271
63.5338
46.8672
31.644
19.0379
6.64076
338.861
338.96
339.278
339.287
338.103
334.651
329.279
323.034
316.364
304.954
287.401
266.067
243.469
222.517
201.77
179.746
156.494
130.183
102.497
81.7247
65.6554
50.2697
35.4799
21.3419
7.2795
338.392
338.337
338.136
337.527
335.965
332.849
328.051
322.26
316.282
306.256
290.349
270.093
247.922
226.862
205.783
183.247
158.54
130.862
103.135
82.5145
66.4895
51.1457
36.1637
21.9867
7.27759
338.073
337.931
337.478
336.618
335.021
332.112
327.588
321.625
314.684
304.719
289.925
270.926
249.766
228.715
207.292
184.185
158.798
131.524
105.568
85.0288
68.0242
52.202
37.0518
22.8217
7.39339
317.917
317.128
315.137
312.228
308.571
302.451
294.444
286.896
278.3
266.903
251.592
232.505
211.662
191.272
172.461
154.96
137.76
120.365
102.755
84.8578
66.6547
48.438
31.1631
16.285
5.16493
318.629
318.104
316.541
313.493
311.819
305.838
298.459
290.652
280.274
267.335
251.318
232.909
213.604
194.446
176.099
158.751
141.426
123.912
106.314
88.2165
69.4432
49.8541
29.6004
11.3058
4.67274
319.581
319.03
317.765
315.697
316.002
308.87
299.318
288.909
276.337
262.534
247.173
230.983
214.243
197.273
179.875
162.921
145.778
127.835
109.68
90.2995
69.0525
45.9126
19.16
7.80234
3.16449
320.871
320.347
319.138
318.399
318.808
308.598
297.663
286.472
273.886
261.049
246.456
229.797
212.927
196.625
180.619
163.665
146.242
127.789
108.065
87.1512
64.3587
39.9197
14.5476
5.71322
1.85239
322.419
321.99
320.897
321.034
321.987
311.945
300.018
283.913
267.446
256.272
243.333
227.7
211.892
196.769
181.176
164.49
146.49
127.276
106.74
85.0226
61.7086
37.111
12.951
4.79934
1.46826
323.965
323.697
323.015
324.07
326.07
318.285
307.297
277.951
252.773
251.808
240.182
225.482
211.086
196.871
181.837
165.355
146.962
127.204
106.085
83.7332
60.255
35.4849
12.2268
4.44874
1.31221
325.164
325.014
324.762
326.878
330.636
326.633
318.907
269.533
238.387
251.71
240.274
219.22
208.326
196.826
183.097
167.032
147.956
127.68
105.898
83.0771
59.5582
34.8925
11.9555
4.33537
1.27915
325.926
325.791
325.763
328.638
333.919
331.909
323.319
248.755
242.315
254.822
241.728
220.216
201.979
195.883
184.858
168.384
148.631
127.679
105.55
82.5734
59.0082
34.7884
11.9709
4.33245
1.28591
326.415
326.192
326.05
329.001
334.436
330.872
318.484
234.69
256.134
258.894
243.396
217.202
207.134
198.697
186.639
169.096
149.312
127.981
105.661
83.0381
59.6167
35.365
12.1447
4.34863
1.28722
326.872
326.502
325.978
328.567
332.955
326.332
310.453
279.574
270.542
262.998
247.068
227.052
217.183
202.723
187.653
169.621
149.736
128.716
106.644
83.8499
60.5041
35.8889
12.1954
4.32386
1.27148
327.606
327.069
326.081
328.133
331.783
324.468
311.554
294.813
280.962
268.457
253.223
237.007
221.874
205.84
189.052
170.309
150.495
129.909
107.698
84.5802
60.9021
35.8923
12.0167
4.3082
1.2651
328.894
328.286
326.757
328.325
331.794
325.391
315.12
302.69
289.941
275.66
259.296
242.948
226.744
209.347
191.005
171.572
151.568
130.822
108.749
85.5415
61.4582
36.1859
12.0166
4.36926
1.28739
330.909
330.424
328.652
329.804
333.458
328.273
319.842
309.125
296.479
281.748
264.972
248.126
230.876
212.404
193.158
173.325
153.102
132.036
109.809
86.6244
62.5377
37.1173
12.3827
4.78017
1.48091
333.648
333.334
331.895
332.778
336.904
332.62
325.152
315.015
302.317
287.486
270.265
251.876
233.137
214.082
194.556
174.848
154.76
133.36
110.694
87.541
63.5188
38.1146
13.3821
5.96037
2.22714
336.686
337.1
336.585
337.687
343.698
339.333
331.544
321.234
308.44
293.019
274.796
254.263
233.799
214.307
194.908
175.188
154.778
133.025
110.642
87.9817
64.8491
40.5668
16.8463
8.40311
3.60918
338.795
339.641
340.98
346.177
351.397
346.245
338.593
328.08
314.83
298.361
277.917
255.081
232.733
212.832
193.469
173.687
153.276
131.378
108.344
85.9469
64.8402
43.3298
24.7288
14.6974
5.39591
339.313
339.824
341.306
343.25
343.55
339.394
331.884
324.3
314.912
299.943
280.507
258.198
235.452
214.942
194.774
173.633
151.622
128.251
104.093
82.5784
64.1685
47.1622
31.7572
19.0676
6.65883
338.955
339.067
339.424
339.458
338.21
334.603
329.122
322.879
315.459
303.74
286.697
266.38
244.343
222.737
201.225
178.841
155.394
130.376
105.052
83.8166
66.4587
50.4969
35.5368
21.3401
7.32895
338.456
338.408
338.227
337.622
335.996
332.794
328.014
322.249
315.607
305.348
289.828
270.265
248.494
226.899
205.063
182.055
157.539
131.543
106.059
84.9266
67.4581
51.4177
36.2259
21.9338
7.36362
338.123
337.986
337.539
336.673
335.022
332.051
327.524
321.629
314.457
304.381
289.769
271.093
250.097
228.587
206.574
183.214
158.341
132.436
107.837
86.8978
68.9999
52.5627
37.0849
22.6066
7.50304
317.707
316.942
315.038
312.354
308.988
302.941
294.683
286.693
277.978
266.791
251.618
232.519
211.621
191.187
172.277
154.666
137.432
120.084
102.53
84.6762
66.4926
48.2249
30.8992
16.0739
5.0316
318.368
317.876
316.366
313.556
312.169
306.402
298.913
290.617
279.995
267.069
251.122
232.975
213.726
194.464
175.996
158.471
141.167
123.756
106.182
88.1184
69.3074
49.6595
29.3394
11.0466
4.62685
319.215
318.674
317.438
315.457
316.217
309.362
299.83
289.124
276.388
262.55
247.288
231.248
214.554
197.456
179.995
162.716
145.44
127.672
109.554
90.1618
68.8706
45.7518
19.0185
7.66663
3.1306
320.379
319.839
318.605
317.917
318.758
308.984
298.228
286.895
274.233
261.223
246.783
230.324
213.447
196.911
180.541
163.513
145.845
127.389
107.861
87.0362
64.2328
39.8079
14.3974
5.59881
1.81646
321.8
321.324
320.124
320.241
321.607
311.739
299.802
285.072
269.858
257.233
243.7
228.301
212.514
197.061
181.169
164.318
146.03
126.918
106.521
84.8591
61.5542
36.9063
12.7708
4.67896
1.42132
323.253
322.907
321.99
322.874
325.151
316.642
304.126
281.916
261.887
253.741
241.445
226.647
211.82
197.196
181.844
165.119
146.462
126.858
106.024
83.6345
60.0542
35.2299
12.0624
4.33987
1.26328
324.458
324.222
323.644
325.387
328.887
322.607
310.41
278.285
253.496
252.18
240.595
224.213
210.021
197.003
182.951
166.374
147.417
127.218
105.74
83.0737
59.4288
34.7096
11.8225
4.23177
1.23244
325.307
325.092
324.729
327.039
331.413
326.294
313.372
273.462
254.05
254.113
241.587
224.306
208.853
197.061
184.023
167.442
148.065
127.334
105.457
82.535
58.8344
34.6179
11.829
4.22457
1.23963
325.912
325.626
325.181
327.536
331.846
325.869
311.387
274.438
262.261
258.146
243.962
226.22
211.973
199.655
185.815
168.354
148.855
127.749
105.615
82.925
59.5136
35.1324
11.9809
4.22734
1.23748
326.491
326.08
325.329
327.42
331.033
323.671
309.428
287.319
273.81
263.293
248.524
231.987
218.031
203.241
187.533
169.354
149.496
128.561
106.562
83.8036
60.4196
35.6889
12.0033
4.19386
1.21621
327.342
326.791
325.634
327.334
330.494
323.149
311.633
296.873
282.942
269.329
254.177
238.425
222.738
206.452
189.36
170.353
150.501
129.764
107.53
84.4893
60.7382
35.5972
11.8131
4.17957
1.20674
328.743
328.158
326.534
327.811
330.958
324.616
315.153
303.501
290.63
276.098
259.926
243.631
227.277
209.718
191.284
171.733
151.643
130.658
108.517
85.3246
61.3085
36.1277
11.8527
4.25258
1.23594
330.872
330.412
328.611
329.621
333.041
327.753
319.776
309.384
296.637
281.934
265.475
248.608
231.098
212.458
193.157
173.458
153.008
131.727
109.592
86.4145
62.4022
37.009
12.2687
4.69606
1.4575