/*--------------------------------*- C++ -*----------------------------------*\
  =========                 |
  \\      /  F ield         | OpenFOAM: The Open Source CFD Toolbox
   \\    /   O peration     | Website:  https://openfoam.org
    \\  /    A nd           | Version:  6
     \\/     M anipulation  |
\*---------------------------------------------------------------------------*/
FoamFile
{
    version     2.0;
    format      ascii;
    class       volScalarField;
    location    "35";
    object      epsilon;
}
// * * * * * * * * * * * * * * * * * * * * * * * * * * * * * * * * * * * * * //

dimensions      [0 2 -3 0 0 0 0];

internalField   nonuniform List<scalar> 
230684
(
0.194758
0.172433
0.15139
0.138132
0.244098
0.215291
0.193834
0.092715
0.0945276
0.0987797
0.107582
0.132211
0.158017
0.19942
0.242196
0.287682
0.342827
0.407291
0.476946
0.547762
0.610758
0.670382
0.717653
0.744
0.753796
0.193434
0.174599
0.300319
0.241016
0.376306
0.357367
0.844158
0.284577
0.245716
0.240612
0.2896
0.321941
0.347407
0.407526
0.513295
0.673885
0.878444
1.09756
1.33088
1.52879
1.65697
1.71416
1.73495
1.61993
1.31054
0.193926
0.173689
0.306542
0.424525
0.350971
1.49828
1.0122
1.1857
0.936664
0.579483
0.478567
0.599081
0.775616
0.781626
0.867024
1.15828
1.67479
2.05724
2.18455
2.19683
2.23937
2.20395
1.59533
0.886198
0.719303
0.191196
0.341129
0.539515
0.391607
0.242803
1.72112
1.42933
0.896882
0.973694
1.4563
1.205
4.97996
2.07066
1.29566
1.03781
0.477991
0.482835
0.462322
0.490235
0.570871
0.667556
0.721524
0.569893
0.391483
0.319264
0.193656
0.174246
0.300651
0.404434
0.287799
0.326283
0.395617
0.45145
0.563159
1.18559
1.32807
4.81544
2.40906
1.41466
1.27079
0.555715
0.550701
0.522614
0.534027
0.631871
0.751725
0.797102
0.664514
0.399421
0.345807
0.193777
0.173697
0.300406
0.371994
0.326557
0.689175
0.411684
0.481063
1.046
1.82239
1.47676
1.50705
1.48414
0.577357
1.31913
0.477861
0.41061
0.389988
0.350299
0.361228
0.477256
0.576547
0.519108
0.344297
0.279467
0.193893
0.173719
0.300759
0.373435
1.0037
0.663569
0.292935
0.378764
0.342203
0.302506
0.238966
0.611948
0.463775
0.763498
0.456541
0.388957
0.464383
0.528258
0.552584
0.593742
0.651356
0.681827
0.532714
0.32152
0.264727
0.194076
0.173802
0.304516
0.406929
0.256178
0.197661
0.13381
4.23802
2.15047
1.1827
0.653732
0.458715
1.64677
2.47796
3.20222
2.14626
1.27717
0.845254
0.66273
0.57426
0.549542
0.568184
0.455688
0.292677
0.246595
0.194194
0.173919
0.306518
0.421405
0.286543
0.201644
0.129562
5.00924
2.5866
1.28926
0.782388
0.680191
4.17244
2.49895
3.33186
2.29487
1.17108
0.685786
0.50631
0.457984
0.458689
0.470428
0.41192
0.296728
0.248181
0.194229
0.174005
0.30737
0.426387
0.295516
0.215158
0.162507
1.07184
2.05359
0.833889
1.00526
0.822433
2.57744
1.24775
0.476695
1.02567
1.27816
1.06382
0.872836
0.810375
0.750394
0.695949
0.545037
0.348602
0.286891
0.194263
0.17407
0.307837
0.426176
0.288615
0.675889
0.337859
1.52847
1.06803
0.845769
0.665167
1.24137
1.34397
0.705537
0.615521
0.732899
1.18199
1.21465
1.18389
1.07008
0.925397
0.822169
0.548727
0.356586
0.291694
0.194297
0.174119
0.308689
0.436114
0.312932
0.231999
0.619763
0.380965
1.14357
0.244873
0.475228
0.34
0.260367
0.391563
0.37152
0.359624
0.501144
0.574302
0.895678
1.0237
0.789912
0.697051
0.487825
0.237713
0.196595
0.194327
0.174103
0.309263
0.441115
0.320009
0.241962
0.271262
0.62503
0.829921
0.756103
0.903921
0.478062
1.51489
0.760713
1.20948
0.75421
3.03151
0.199781
3.15873
1.06072
0.857748
0.556335
0.439912
0.37979
0.138121
0.19435
0.174087
0.309448
0.442649
0.322076
0.245259
0.404104
0.698865
0.872758
0.916758
0.805553
0.876134
1.02358
0.848773
1.36936
0.948116
0.528566
0.642837
2.18833
1.75104
2.1119
1.06385
0.824386
0.341654
0.129344
0.194281
0.174124
0.309371
0.442493
0.320886
0.249688
0.542845
0.970645
1.15052
1.17395
1.05776
5.07162
3.75351
1.73644
0.629941
0.72043
0.613607
0.57873
0.726348
0.993476
1.09116
1.93096
1.85938
1.0235
0.261656
0.192752
0.176972
0.299377
0.240631
0.199942
0.164569
0.164515
0.26016
0.527893
0.586628
1.07133
8.45757
3.37113
2.27667
0.998799
1.20852
0.79108
0.549115
0.671801
1.90556
1.21532
0.840838
0.307769
0.315359
0.303599
0.19554
0.172057
0.152227
0.136614
0.122858
0.113359
0.196697
0.165152
0.12186
0.244548
0.554941
0.590372
3.84101
2.05059
1.20548
0.479171
0.579489
1.19164
2.5203
0.855143
0.941668
0.340916
0.304146
0.720821
0.61406
0.196665
0.170376
0.153709
0.134638
0.125866
0.213533
0.354675
0.341589
0.270462
0.196668
0.335104
0.626879
0.654399
0.780197
0.762152
0.568274
0.959042
0.724255
12.8659
4.08831
2.25783
1.54055
1.32728
1.19373
0.965677
0.195735
0.172124
0.151807
0.137629
0.122774
0.114547
0.186416
0.504441
0.225883
0.114641
0.239321
1.1513
2.46849
0.813915
0.657393
0.551531
0.435805
0.799167
12.3126
4.60639
1.57823
1.02614
0.982326
0.946823
0.869136
0.196043
0.171613
0.152394
0.13717
0.123761
0.114367
0.104496
0.0981473
0.0930948
0.086046
0.0844691
0.165946
0.163295
0.0908904
0.101941
0.123515
0.253459
0.663787
0.924845
0.53372
0.328197
0.340126
0.347794
0.355027
0.361634
0.0369559
0.0413327
0.0446267
0.0484436
0.060665
0.0680507
0.0672789
0.0778644
0.0730237
0.0702301
0.0719466
0.0771339
0.0853533
0.0991302
0.119988
0.148747
0.185615
0.22831
0.273213
0.317261
0.356391
0.391077
0.41851
0.435399
0.441309
0.0371584
0.0418183
0.0514751
0.0628794
0.159717
0.412774
0.680325
0.818854
0.474067
0.385799
0.380325
0.355951
0.312169
0.312243
0.334972
0.399379
0.493752
0.606321
0.71285
0.805948
0.867622
0.879525
0.900928
0.959435
0.834614
0.0374697
0.0424202
0.0517785
0.0732304
0.492525
3.79449
2.56923
1.46199
0.823184
0.467027
0.385577
0.427718
0.528449
0.658206
0.781018
0.867792
0.895143
0.909835
0.917343
0.922479
0.797576
0.577932
0.519811
0.0371119
0.0482872
0.0576092
0.115279
0.243119
1.69065
0.839199
0.455587
0.385058
4.39981
0.792383
0.406511
0.276066
0.212794
0.19289
0.209649
0.250468
0.279946
0.255527
0.230886
0.206697
0.0378781
0.0439093
0.054548
0.0800538
0.156742
0.618363
0.480654
0.794226
1.39312
0.972312
0.659197
2.93365
0.852489
0.303604
0.160927
0.138471
0.205966
0.293365
0.374073
0.379392
0.298383
0.245129
0.0379779
0.044621
0.0561984
0.0869196
0.441128
2.4097
1.96356
1.03633
1.75376
2.7934
1.61763
0.918636
0.513769
0.280662
0.179011
0.139498
0.190092
0.282074
0.26714
0.207476
0.182456
0.0377899
0.0436731
0.0549271
0.0880056
0.945972
0.24407
1.4525
1.14504
0.798614
0.531352
0.402695
0.317297
0.250329
0.221079
0.233226
0.254652
0.229738
0.187878
0.164
0.0374626
0.0415142
0.0542912
0.0741674
0.158646
0.222141
0.372613
2.34659
1.81145
1.44362
1.2585
0.929343
0.523039
0.25633
0.161139
0.181942
0.213979
0.24966
0.244669
0.198342
0.165543
0.0372593
0.0409344
0.0515272
0.0678578
0.0689898
0.0690521
0.120299
1.2934
1.5536
1.55397
0.917554
0.420415
0.201127
0.141109
0.170034
0.212378
0.234545
0.234603
0.191878
0.166397
0.0371515
0.0409415
0.0496541
0.0662816
0.0663743
0.0660269
0.103602
2.18315
5.42164
4.06704
3.46554
1.94329
2.18298
1.53373
0.868674
0.703839
0.550826
0.36599
0.264503
0.234332
0.244228
0.263441
0.247825
0.220881
0.185051
0.0370596
0.0407191
0.0492014
0.0659186
0.120894
1.37998
0.751282
1.0658
0.562857
0.432821
0.451306
0.491225
0.523714
0.492637
0.40832
0.368688
0.38467
0.387729
0.34672
0.255077
0.213382
0.0369417
0.0400944
0.0485631
0.0647231
0.0667695
0.154394
1.16703
1.21706
0.320038
3.08737
1.59238
1.88324
0.995594
0.496497
0.332449
0.237064
0.174766
0.138311
0.0368086
0.0396248
0.0494116
0.0633953
0.0618841
0.0722662
0.183507
0.980798
1.27354
1.66678
1.49374
2.1424
0.443103
2.29379
0.727037
0.216168
0.712648
0.583593
0.27364
0.166372
0.0984303
0.0366624
0.0398552
0.0477024
0.0624077
0.0597331
0.0731433
0.220777
0.291341
0.295603
0.379795
0.611948
0.87571
2.20527
0.920084
1.52821
1.9091
0.622114
0.403619
3.28763
0.848008
0.552322
0.239382
0.123437
0.0366988
0.0393152
0.0486995
0.0617414
0.0579479
0.0794536
0.249866
0.326757
0.284654
0.281725
0.348357
4.58691
4.30413
1.33401
0.6544
0.429257
0.357129
0.406504
0.712386
1.06777
1.25553
1.4354
0.499296
0.217341
0.0366342
0.0393387
0.0513968
0.0523886
0.0505391
0.0500557
0.0707311
0.136907
0.190637
0.212895
0.311793
17.1423
1.30458
1.44282
0.703958
0.50986
0.994222
0.573339
0.405065
0.0368014
0.0401987
0.0416012
0.0418599
0.0412195
0.0387904
0.0436563
0.0505257
0.0807028
0.102177
0.142208
1.10082
0.152677
2.9809
2.68482
6.19077
2.56968
1.36562
0.901977
0.875792
0.947208
0.72902
0.0368584
0.0402168
0.0416396
0.042032
0.0410562
0.0475222
0.0547915
0.799728
0.69072
0.435205
0.343969
0.283589
1.0942
6.74609
2.59816
2.28312
2.35714
5.78103
5.7307
3.1944
2.2668
1.83465
1.33763
0.036821
0.0402143
0.0415516
0.0420462
0.0416779
0.0395484
0.0576457
2.00757
0.499501
0.209289
0.226371
0.820326
2.32337
0.697221
0.679644
0.607199
2.67435
7.86643
6.00853
2.30508
1.79432
1.47054
1.16288
0.0368266
0.0401976
0.0415642
0.0418572
0.0413344
0.0405671
0.0404534
0.0403753
0.0403453
0.0432307
0.0459124
0.0599803
0.0826292
0.0890772
0.124343
0.153314
0.203521
0.337838
3.64715
1.0845
0.515251
0.428362
0.393173
0.363634
0.337535
0.0295367
0.0294481
0.0300174
0.0311942
0.0357274
0.0394077
0.0403347
0.0452123
0.0456425
0.0479004
0.0534474
0.0625613
0.075942
0.0953633
0.122972
0.159178
0.202523
0.250054
0.297713
0.342339
0.38161
0.415278
0.441619
0.457979
0.455502
0.0295481
0.0295921
0.0308551
0.0343229
0.073035
0.109807
0.156139
0.177864
0.159563
0.170109
0.184276
0.221479
0.261226
0.309831
0.378553
0.470459
0.580143
0.693042
0.792525
0.872983
0.932296
0.967941
0.962471
0.985914
0.851593
0.0296283
0.0297501
0.0309141
0.0355045
0.25686
1.61129
0.973968
0.595663
0.445282
0.319062
0.211431
0.172993
0.209322
0.320969
0.45225
0.585012
0.711605
0.807126
0.864351
0.905911
0.93952
0.957844
0.815136
0.562144
0.513954
0.0296216
0.0296646
0.0310452
0.0350436
0.0643941
1.68992
0.945442
0.450935
0.279653
0.178784
0.13863
1.06661
0.82284
0.489976
0.300123
0.195955
0.148799
0.134062
0.132632
0.132505
0.145016
0.161739
0.145455
0.129818
0.139051
0.0297139
0.0301303
0.0317956
0.0378725
0.0782687
0.974156
1.24371
1.29811
1.29619
0.894554
0.53244
1.71744
1.80593
1.06053
0.488237
0.227483
0.105458
0.0682971
0.0595511
0.0646871
0.0892495
0.131328
0.143056
0.119825
0.116391
0.0297128
0.0303429
0.0327987
0.0462337
0.555677
3.95512
3.42406
2.3177
1.19887
0.947288
0.592459
0.389169
0.220685
0.123221
0.0852445
0.0669679
0.0600948
0.0719173
0.105133
0.114158
0.089408
0.0893324
0.0296556
0.0300608
0.0322459
0.0508962
4.29943
2.34861
1.1693
0.79378
0.465414
0.318207
0.244759
0.15657
0.0896661
0.0754299
0.0842613
0.0989935
0.0993867
0.0839496
0.082229
0.0295774
0.0295715
0.0314084
0.0370044
0.116301
0.227371
0.423114
3.30219
0.998339
1.54915
1.43241
0.878747
0.445481
0.185741
0.0823677
0.0765214
0.0988409
0.119545
0.116906
0.0974935
0.0907233
0.0295548
0.0294112
0.0305467
0.0335762
0.0365357
0.047027
0.234927
2.27369
1.18518
1.96326
1.44997
0.844093
0.381654
0.153182
0.0730578
0.077681
0.104638
0.128439
0.121106
0.0943131
0.0913354
0.0295296
0.0293606
0.0302586
0.0327718
0.0346516
0.0461304
0.143645
2.58713
3.63339
5.18361
2.80826
1.08247
0.861061
0.491985
0.388042
0.368963
0.277343
0.150478
0.0864667
0.083274
0.0983724
0.11483
0.111618
0.0943706
0.0922726
0.0295143
0.0293028
0.0301456
0.0325845
0.0372978
0.104072
1.31643
7.18823
4.21745
3.27738
2.32465
1.03211
0.561217
0.37156
0.361882
0.352481
0.344044
0.277872
0.191602
0.156636
0.148951
0.149835
0.134388
0.109462
0.104114
0.0294939
0.0292256
0.0299973
0.0321291
0.0347773
0.0694837
0.438052
1.86548
2.03921
2.63265
1.43221
1.5783
1.61901
1.61774
1.65994
1.68021
1.60378
0.611634
0.450062
0.364535
0.265201
0.192337
0.138255
0.0978193
0.0877879
0.0294702
0.0291699
0.0298826
0.0316608
0.0333771
0.0815172
0.151804
0.212023
0.417387
0.817943
5.13206
3.0871
1.00327
0.610886
0.46309
0.480107
0.297737
1.76209
1.90316
0.839076
0.381633
0.195377
0.111759
0.0751161
0.0627198
0.0294502
0.029133
0.0297742
0.0313599
0.0332995
0.0990933
0.18349
0.129407
0.113959
0.133683
0.259471
0.3622
0.525251
0.451762
0.34974
0.290432
0.233908
0.18708
0.368398
0.542494
0.355125
0.242501
0.134255
0.0902957
0.0781341
0.0294469
0.0291019
0.0297426
0.0311484
0.0335995
0.107816
0.202217
0.140524
0.0920405
0.0943653
0.134593
1.34453
4.19109
1.62942
0.690359
0.31542
0.17679
0.133543
0.124942
0.200703
0.253764
0.238145
0.18427
0.209621
0.184626
0.0294469
0.0291183
0.0299787
0.0300796
0.0302324
0.0410058
0.079532
0.131404
0.127631
0.107453
0.144639
1.96512
7.65
2.89016
1.53612
0.880966
0.48422
0.377583
0.370713
0.432941
0.438356
0.427545
0.411064
0.522841
0.452047
0.0294604
0.0291094
0.0287491
0.0283904
0.027925
0.0271428
0.0294031
0.0418818
0.0673038
0.0821785
0.101197
0.581783
5.46855
6.34599
3.35602
1.88579
1.13807
1.03163
1.56877
1.57318
1.36653
1.17699
1.01232
0.929943
0.765685
0.0294631
0.0291201
0.0287741
0.0284055
0.0279317
0.0290936
0.0321156
0.261308
0.364942
0.247741
0.242379
0.221621
0.388768
0.5464
0.553643
0.558436
0.591797
0.913268
5.55663
3.48819
2.64653
1.66555
1.44848
1.33732
1.07201
0.0294633
0.0291168
0.0287878
0.0284053
0.0280557
0.0273275
0.0327846
1.54711
0.297526
0.137151
0.185954
0.235635
0.318875
0.343054
0.260846
0.295709
0.309208
0.757839
2.9042
1.78167
1.00719
0.916748
0.835147
0.770355
0.691468
0.0294645
0.0291137
0.0287767
0.0284152
0.027998
0.027471
0.0272965
0.0273303
0.0276815
0.0304456
0.0344772
0.0407204
0.0477277
0.0581801
0.0729721
0.0927545
0.13859
0.235994
0.404653
0.477066
0.344194
0.323264
0.319826
0.298559
0.288706
0.0292688
0.0280383
0.0273785
0.0277414
0.0286854
0.0297398
0.0306961
0.0320242
0.034035
0.0378352
0.0452249
0.0574494
0.0756524
0.10096
0.135339
0.178605
0.228436
0.281115
0.332041
0.378422
0.418533
0.452781
0.488908
0.490596
0.491936
0.0292821
0.0281052
0.0277263
0.0282807
0.0324816
0.0428066
0.0560014
0.0711985
0.0855958
0.0986569
0.127717
0.182055
0.25273
0.33124
0.422364
0.529584
0.646304
0.759956
0.855764
0.931143
0.985794
1.01575
1.01581
1.00734
0.882078
0.0293123
0.0281556
0.0278715
0.0285523
0.0398023
0.120985
0.164804
0.161492
0.136861
0.104668
0.108878
0.143861
0.202516
0.291408
0.409961
0.547251
0.682287
0.785167
0.849116
0.897751
0.934628
0.955369
0.80773
0.548834
0.512985
0.02933
0.028202
0.0279925
0.0285735
0.0342707
0.0913506
0.135085
0.129142
0.11057
0.094418
0.0818741
0.0910517
0.11691
0.125898
0.119277
0.104529
0.09876
0.0993823
0.100228
0.101795
0.105958
0.110547
0.094519
0.0874424
0.0999747
0.029343
0.028231
0.0282921
0.0299208
0.0448311
0.171243
0.292948
0.405703
0.763688
0.848588
0.496012
0.314954
0.280859
0.226074
0.159346
0.0939476
0.0541547
0.0393445
0.0342462
0.0329777
0.0351705
0.0409569
0.0436597
0.042976
0.0495451
0.0293197
0.0282527
0.0287258
0.0333123
0.156382
0.916636
0.807362
2.43625
4.68393
2.1147
2.24093
1.50886
0.491709
0.220572
0.158175
0.105687
0.0690519
0.0478875
0.0361218
0.0319848
0.032913
0.0381469
0.0400686
0.037496
0.0404043
0.0293148
0.0281392
0.0285139
0.0339977
0.252762
0.761119
0.691104
2.60788
0.669103
0.394311
0.252507
0.211642
0.175963
0.110639
0.0522363
0.0344858
0.0344246
0.0375352
0.0383108
0.036689
0.0387675
0.0292948
0.0280664
0.0279494
0.0294888
0.0394511
0.093444
0.359185
5.90233
0.730775
1.23972
0.992302
0.621142
0.362921
0.176404
0.0651637
0.0371395
0.0382792
0.0420453
0.0419021
0.0396879
0.0419363
0.0292857
0.0280397
0.0276302
0.0278298
0.0291297
0.0429568
0.467305
2.20179
1.2379
1.47753
1.04938
0.626076
0.3358
0.14814
0.0532512
0.0365589
0.0396156
0.0439479
0.0427248
0.0394845
0.0421245
0.029288
0.0280141
0.0274993
0.0273736
0.0281426
0.0469883
0.154343
3.02256
4.67167
3.83488
2.21214
1.01472
0.530971
0.287104
0.264402
0.264602
0.192022
0.0983542
0.0451341
0.0364278
0.0381559
0.0414085
0.0411384
0.0391239
0.0418536
0.0292921
0.0279855
0.0274516
0.027233
0.028542
0.0600523
0.176184
1.1355
1.3963
1.2215
0.78296
0.378385
0.164449
0.128033
0.140035
0.149985
0.145865
0.113671
0.0826999
0.0675325
0.0586752
0.0533246
0.0478298
0.0443331
0.0459447
0.0292824
0.0279721
0.0274159
0.0270538
0.0289377
0.0772191
0.13813
0.461296
1.09428
1.08901
0.794885
0.396864
0.183526
0.148083
0.158085
0.181176
0.218
0.212935
0.185354
0.160271
0.127714
0.100792
0.0680728
0.0487839
0.0462068
0.0292585
0.0279813
0.0273946
0.0268873
0.0292349
0.0966506
0.119884
0.103036
0.129996
0.163237
0.263114
0.261369
0.230114
0.204632
0.172341
0.133582
0.121528
0.126832
0.229619
0.180856
0.120649
0.0948685
0.0623322
0.0443733
0.0415253
0.0292309
0.0280058
0.0273842
0.0268277
0.0302482
0.117885
0.142024
0.0822123
0.0587364
0.0574915
0.0744988
0.118228
0.171448
0.178823
0.142772
0.102821
0.088544
0.0850852
0.0925338
0.112469
0.104135
0.0867099
0.0608932
0.0677324
0.0690056
0.0292378
0.0279857
0.0273561
0.0267567
0.0314044
0.128133
0.166463
0.0957533
0.0537602
0.0457021
0.0543098
0.119776
0.598092
0.537094
0.309923
0.157869
0.0895133
0.07352
0.0736641
0.0933286
0.11892
0.130369
0.16904
0.266618
0.238207
0.0292737
0.0279404
0.0273355
0.0262203
0.0271951
0.0420245
0.0940743
0.122004
0.10268
0.0704448
0.0669372
0.185144
0.617255
0.655214
0.57234
0.459936
0.366693
0.340489
0.369872
0.421208
0.470247
0.485285
0.578511
0.568787
0.521246
0.0292681
0.0279784
0.0268126
0.0260826
0.0247294
0.0245546
0.0274406
0.0379249
0.0526373
0.071008
0.0815715
0.13406
0.196365
0.238498
0.355297
0.436786
0.364827
0.471431
0.636616
0.716672
0.762458
0.756233
0.747616
0.74303
0.711395
0.0292381
0.0280247
0.0268518
0.0259137
0.0251236
0.0241918
0.0247877
0.0360438
0.0530331
0.06531
0.0798602
0.0987184
0.126228
0.152038
0.171699
0.199749
0.203461
0.282524
0.539288
0.572255
0.636096
0.669374
0.694548
0.718518
0.710203
0.0292563
0.0279854
0.0269284
0.0258557
0.0251729
0.0241417
0.0241667
0.0289705
0.0316217
0.0387795
0.0488738
0.0632
0.0852272
0.109365
0.130526
0.15933
0.165067
0.221858
0.357377
0.345238
0.395067
0.414168
0.430869
0.446831
0.43792
0.0292635
0.0279768
0.026918
0.0259046
0.0250855
0.0242436
0.0238393
0.0233075
0.0234302
0.0242732
0.026103
0.0288827
0.0325889
0.038848
0.0509453
0.075663
0.101021
0.139382
0.178413
0.209071
0.224829
0.233453
0.231596
0.235029
0.235501
0.0292527
0.0279953
0.0268904
0.0267154
0.0268482
0.0270019
0.0273547
0.0281275
0.0299708
0.0341601
0.0426667
0.0571679
0.0791464
0.109215
0.149001
0.197645
0.25219
0.308322
0.361159
0.407972
0.448698
0.48271
0.509476
0.519487
0.519697
0.0292803
0.0280061
0.0272379
0.026987
0.0277759
0.0302762
0.0369926
0.0475526
0.0589254
0.0756128
0.113685
0.178218
0.26422
0.360729
0.465554
0.579414
0.695725
0.80542
0.897659
0.966394
1.0165
1.05032
1.0468
1.02117
0.900661
0.0293158
0.0280248
0.0273418
0.0271064
0.0285832
0.0438156
0.0705398
0.0734406
0.0641115
0.0673454
0.0984409
0.153645
0.224242
0.312015
0.425095
0.556921
0.684933
0.784505
0.846995
0.893699
0.926474
0.944295
0.796271
0.540747
0.51088
0.0293292
0.0280701
0.0274466
0.0272473
0.0288128
0.0424354
0.0615102
0.062149
0.0591579
0.0589942
0.0593524
0.0554431
0.0548759
0.0596541
0.0655782
0.0711223
0.077802
0.0841868
0.0877414
0.0907253
0.0936697
0.0953239
0.0775902
0.0767977
0.0900441
0.0293485
0.0280735
0.0275455
0.0278201
0.0318752
0.0530945
0.0944332
0.158775
0.473113
0.593766
0.353796
0.186762
0.109214
0.078804
0.0621914
0.0470913
0.0357988
0.0294956
0.0264537
0.0252209
0.0250818
0.025654
0.0257929
0.0272891
0.0301468
0.0293611
0.0279965
0.0278071
0.0290243
0.0425759
0.114705
0.241985
2.94053
10.9297
5.00594
3.36521
1.05408
0.290955
0.137643
0.092587
0.0680691
0.0504897
0.0364498
0.0277463
0.0246646
0.0241582
0.024668
0.0247823
0.0241454
0.0250702
0.0293266
0.0279898
0.027657
0.0288327
0.0404174
0.100913
0.316343
4.16888
0.546699
0.290366
0.231362
0.189049
0.151085
0.0984216
0.0451872
0.0264855
0.0244261
0.0245826
0.024548
0.0239623
0.0245805
0.0292937
0.0279785
0.0273006
0.0274819
0.0297778
0.0473098
0.422007
8.68186
0.710849
1.37565
0.591458
0.344794
0.238702
0.145266
0.0591411
0.0279329
0.0250747
0.0251951
0.0250403
0.0244787
0.0253567
0.0292894
0.0279489
0.0271475
0.026692
0.0272704
0.0434089
0.651856
2.07954
2.15754
1.10908
0.549153
0.347565
0.221343
0.119527
0.0455265
0.0266091
0.0251491
0.0254428
0.0251986
0.0245386
0.0255072
0.0292981
0.0279152
0.0270775
0.0264128
0.0269508
0.0499973
0.163183
3.05642
4.06288
2.84069
1.73941
0.740774
0.363767
0.237543
0.228943
0.215576
0.153974
0.0815959
0.0355825
0.0260207
0.0251102
0.0252712
0.0251369
0.0248066
0.0255059
0.0293064
0.02788
0.0270701
0.0262789
0.0274039
0.0613843
0.0942306
0.161681
0.370459
0.477797
0.368901
0.199558
0.109469
0.0950156
0.0898041
0.0800791
0.0660707
0.0499154
0.0391012
0.0343006
0.0310736
0.0286834
0.0270935
0.0263553
0.0271192
0.0292915
0.0278717
0.0270947
0.0261674
0.0281089
0.0797396
0.100885
0.105765
0.176308
0.235731
0.178906
0.106305
0.078767
0.0741946
0.0719574
0.067372
0.0664302
0.0651743
0.0613849
0.0564024
0.0492192
0.0416844
0.0331301
0.0287485
0.0286206
0.0292514
0.0279106
0.0271141
0.0261171
0.029234
0.100704
0.109467
0.0725139
0.0644553
0.0664504
0.0746201
0.0774999
0.0828302
0.0821152
0.0719954
0.0578114
0.0532281
0.053544
0.0579233
0.0581852
0.0508557
0.0435156
0.0336536
0.0309065
0.0316127
0.0292065
0.0279694
0.0271005
0.0261551
0.0308466
0.124178
0.128797
0.0747474
0.0452236
0.0377484
0.0403114
0.0511238
0.0665668
0.0743013
0.0631066
0.0485294
0.0423016
0.0406247
0.0412241
0.0433115
0.0428185
0.0399375
0.0391954
0.0705598
0.0763704
0.0292216
0.0279394
0.0270647
0.0261219
0.0323684
0.138253
0.156463
0.0876261
0.0475581
0.0354499
0.037096
0.0488144
0.0946294
0.127688
0.106783
0.0738791
0.0607283
0.0651833
0.0779525
0.0976184
0.121693
0.143328
0.218822
0.344541
0.308264
0.0292829
0.0278641
0.0270299
0.0255983
0.0269681
0.0440965
0.102625
0.12035
0.0970892
0.0630814
0.0547289
0.0679798
0.140082
0.230694
0.276167
0.292464
0.304184
0.341741
0.403126
0.476921
0.541373
0.583958
0.633803
0.629133
0.58945
0.0292973
0.0278667
0.0265885
0.0257025
0.0241105
0.0240377
0.0275562
0.0380538
0.0525724
0.0707946
0.0765137
0.0835028
0.0990464
0.117513
0.143122
0.179679
0.229174
0.278215
0.350777
0.454553
0.530638
0.589477
0.621234
0.645451
0.639744
0.0292429
0.0279529
0.0265997
0.0255019
0.0245845
0.0233175
0.0234001
0.0248809
0.0290596
0.0352602
0.0509022
0.0671715
0.0830834
0.0987995
0.112694
0.131548
0.147475
0.168168
0.200848
0.254169
0.307428
0.382661
0.44402
0.514305
0.531164
0.0292632
0.0279087
0.0266838
0.0254766
0.0244911
0.0235843
0.0227885
0.0224353
0.0233527
0.0251327
0.0289645
0.0355055
0.049635
0.0676443
0.0865958
0.110001
0.127913
0.14914
0.171373
0.20053
0.224748
0.252199
0.269581
0.30586
0.318122
0.0292733
0.0278947
0.0266799
0.0255104
0.0244757
0.0235193
0.0229398
0.0222216
0.0218897
0.0222433
0.0231631
0.0247869
0.0275704
0.0324598
0.0441028
0.0663651
0.0913277
0.118002
0.144649
0.164333
0.17873
0.187065
0.191232
0.199379
0.19961
0.029255
0.0279777
0.0268692
0.0263301
0.0261323
0.0258517
0.0258079
0.0264396
0.0283868
0.0330644
0.0426496
0.0593813
0.0844874
0.118658
0.162919
0.215644
0.273639
0.332195
0.386424
0.433914
0.475126
0.509235
0.535974
0.544907
0.543882
0.0292739
0.0279981
0.0271657
0.0266029
0.0265701
0.0275555
0.0315632
0.0399836
0.0504324
0.0691599
0.111135
0.18131
0.277572
0.386831
0.502456
0.620431
0.734729
0.839714
0.927825
0.991248
1.0394
1.06479
1.06394
1.03981
0.913951
0.0293102
0.0280033
0.0272505
0.0267147
0.0267235
0.0350921
0.0540372
0.053934
0.0479343
0.0578563
0.0951307
0.159678
0.243165
0.340785
0.455304
0.579081
0.695772
0.787857
0.847105
0.890795
0.919468
0.934321
0.786391
0.536278
0.509682
0.0293213
0.0280409
0.0273313
0.0268155
0.0272447
0.035679
0.0476652
0.0453027
0.0411132
0.041193
0.0445169
0.0455107
0.0449681
0.0469841
0.0528511
0.0609987
0.0693796
0.0767163
0.0822588
0.0861452
0.0893448
0.0912639
0.0765307
0.0745265
0.088466
0.0293243
0.0280661
0.0273908
0.0271233
0.0282772
0.0371535
0.0534324
0.0814152
0.231778
0.296383
0.196917
0.118202
0.0729158
0.0505083
0.0410594
0.0351347
0.0302317
0.026667
0.0246894
0.0238157
0.0234505
0.0233018
0.0231438
0.0244405
0.0264508
0.0293217
0.0280532
0.0274087
0.027523
0.0302533
0.0419597
0.0999497
2.91038
5.68712
3.17656
1.23261
0.502197
0.209013
0.107045
0.07119
0.0538053
0.0413335
0.0312832
0.0253467
0.0232845
0.0226983
0.0224573
0.0222454
0.021654
0.0216686
0.0293011
0.0280147
0.0273329
0.027398
0.0294543
0.0396611
0.228068
7.08401
0.609709
0.284218
0.185084
0.13753
0.105271
0.0699058
0.0358131
0.024445
0.0227909
0.0224331
0.0222106
0.0216668
0.021287
0.0292877
0.0279761
0.0271898
0.026869
0.0276036
0.0371999
0.411812
15.7866
2.25744
0.353964
0.243249
0.181068
0.131603
0.0867159
0.04131
0.0250411
0.022871
0.0224883
0.022258
0.0217257
0.0214639
0.0292874
0.0279438
0.0270812
0.0264703
0.0267894
0.042179
0.590031
1.20078
1.66679
0.331004
0.268493
0.186502
0.125288
0.0732204
0.0345608
0.0242312
0.022794
0.0225002
0.0222952
0.0217528
0.0215618
0.0293002
0.027905
0.0270296
0.0262801
0.0267263
0.0497276
0.134382
2.31741
2.60704
1.7099
1.06699
0.579949
0.264513
0.208205
0.17833
0.140508
0.0986295
0.0555118
0.029527
0.0237557
0.0227913
0.0224954
0.0223492
0.0218879
0.0216804
0.0293068
0.0278694
0.027033
0.0261596
0.0272356
0.0600967
0.0830171
0.0945555
0.174188
0.224189
0.183043
0.115233
0.0816658
0.0751321
0.0684167
0.0571335
0.0439297
0.032879
0.0272629
0.0252237
0.0240884
0.0233077
0.0228428
0.02242
0.0222909
0.0292876
0.0278667
0.0270774
0.0260654
0.0280226
0.077455
0.0922339
0.0684661
0.0645577
0.0707984
0.0660145
0.0542754
0.0482949
0.0463767
0.0432591
0.038029
0.0340128
0.0319406
0.030534
0.0292107
0.0275693
0.025887
0.0242831
0.0233972
0.0234257
0.0292383
0.0279198
0.0271039
0.0260733
0.0295355
0.100397
0.106062
0.0664643
0.0453308
0.039994
0.0401472
0.0417562
0.0432821
0.0434482
0.0399229
0.0346895
0.031466
0.0304272
0.0300766
0.0294505
0.0281635
0.0267327
0.0248864
0.0271295
0.0290094
0.0291846
0.0279975
0.0270835
0.026133
0.0314903
0.126906
0.126441
0.0745026
0.0433819
0.0326763
0.0327653
0.035907
0.0394893
0.041514
0.0380805
0.0330245
0.0299434
0.0286747
0.0283052
0.0284248
0.0287632
0.0290275
0.0353927
0.0816068
0.0902404
0.0292057
0.0279592
0.0270436
0.0261152
0.0334908
0.144681
0.156254
0.0871825
0.0474257
0.034275
0.0338202
0.0374469
0.0446711
0.0532844
0.0533156
0.0513674
0.0570056
0.0721148
0.0937322
0.120807
0.150852
0.180852
0.279529
0.41684
0.377048
0.0292839
0.0278596
0.0270246
0.0255381
0.0272356
0.045887
0.107072
0.122436
0.0972865
0.0625169
0.0509657
0.0545121
0.0757193
0.120605
0.171534
0.221145
0.278184
0.349069
0.431716
0.519672
0.596848
0.655592
0.689277
0.667548
0.649238
0.0293143
0.0278386
0.0265982
0.0256373
0.0240339
0.0240843
0.0281276
0.0389496
0.0557464
0.0726946
0.076113
0.0770225
0.0811167
0.0906363
0.108311
0.137741
0.185748
0.23656
0.297783
0.370662
0.441919
0.508872
0.55573
0.59958
0.607667
0.0292455
0.0279544
0.0265644
0.0254649
0.0245011
0.02314
0.0231079
0.0242102
0.0273113
0.0325254
0.0449706
0.0605825
0.0732615
0.0846178
0.0963071
0.110748
0.127465
0.145479
0.166711
0.194166
0.228311
0.28466
0.335876
0.39713
0.43665
0.0292634
0.0279109
0.0266549
0.0254427
0.0243555
0.0235073
0.0225138
0.0220048
0.0223815
0.0235431
0.0261999
0.0306773
0.0415943
0.0584453
0.0757987
0.0956426
0.114492
0.132074
0.148558
0.164477
0.17804
0.19593
0.211709
0.238654
0.257931
0.0292735
0.0278968
0.026653
0.0254715
0.0243624
0.0233924
0.022744
0.0219513
0.0215387
0.0217918
0.0224622
0.0237732
0.0263205
0.0311392
0.0430517
0.0639802
0.0892474
0.113253
0.138378
0.15043
0.160727
0.170078
0.171449
0.178978
0.180215
0.0292492
0.02798
0.0268352
0.026186
0.0258076
0.0252226
0.0251292
0.0259472
0.0284417
0.034208
0.0455511
0.0646369
0.0926851
0.130382
0.178239
0.234293
0.295123
0.355584
0.410978
0.459525
0.501338
0.535924
0.56454
0.56988
0.56803
0.0292696
0.0279836
0.0271493
0.0264663
0.025972
0.0266292
0.0301427
0.038255
0.0498015
0.0708274
0.115992
0.190813
0.29443
0.413473
0.537877
0.659902
0.774065
0.876229
0.959978
1.02222
1.06847
1.09766
1.08995
1.06384
0.939642
0.0293025
0.0279846
0.0272048
0.0265711
0.0261106
0.0333021
0.0509533
0.051243
0.0463519
0.057312
0.0953815
0.163608
0.256455
0.365029
0.484456
0.603619
0.710998
0.794773
0.850502
0.891467
0.917531
0.929737
0.781893
0.537921
0.514528
0.0293102
0.0280178
0.0272633
0.0266397
0.0265739
0.0338685
0.0445488
0.0418613
0.0357189
0.0347941
0.0373304
0.0408361
0.04254
0.045472
0.0516597
0.0597744
0.0675102
0.0740298
0.0804388
0.0848143
0.088025
0.090087
0.0766776
0.0766189
0.0912354
0.0293091
0.0280378
0.0273083
0.0267682
0.0270219
0.033427
0.0442632
0.0533012
0.0886571
0.113605
0.0956287
0.0731977
0.0538994
0.0419681
0.0361518
0.0323634
0.029004
0.026434
0.0249451
0.0242206
0.0238305
0.0235755
0.0236165
0.0257222
0.0277066
0.029299
0.0280332
0.0273175
0.0269412
0.0275422
0.0331345
0.0559054
0.606521
2.26814
1.28379
0.58595
0.259166
0.122056
0.0729801
0.0544938
0.0434988
0.0347509
0.0282898
0.0248595
0.0235917
0.0230877
0.0227806
0.0227362
0.0229756
0.0226844
0.0292864
0.0280024
0.027246
0.0268684
0.0273899
0.032543
0.120247
5.85344
10.6775
4.72488
1.81025
0.663918
0.225707
0.122023
0.0981462
0.0787519
0.0603588
0.0417536
0.0283749
0.0240509
0.0231139
0.0227705
0.0227224
0.0228724
0.0223366
0.0292811
0.0279677
0.0271359
0.0266102
0.0268919
0.0346855
0.216473
8.04968
11.6921
4.45884
1.74527
0.670611
0.231314
0.152259
0.140511
0.102719
0.0709815
0.0465534
0.0297474
0.0242305
0.023117
0.0227679
0.0227294
0.0228824
0.0223718
0.0292847
0.0279352
0.0270517
0.0263936
0.0265541
0.0407362
0.233316
9.10594
6.70732
2.84556
1.23155
0.513692
0.198515
0.167719
0.149074
0.103935
0.0690033
0.0428735
0.0279901
0.0239183
0.0230545
0.0227422
0.0227539
0.0229345
0.0224419
0.0292978
0.0278958
0.0270128
0.0262439
0.026592
0.0480535
0.0987552
0.652708
1.14163
0.772125
0.428782
0.203012
0.133267
0.123595
0.106215
0.0808399
0.0567789
0.0364326
0.026282
0.0236784
0.0230174
0.0227247
0.0228075
0.0230312
0.0225538
0.0293029
0.0278638
0.0270237
0.0261346
0.027109
0.0583771
0.0784799
0.072549
0.089994
0.105822
0.094807
0.072185
0.0624491
0.0590874
0.0534748
0.0445516
0.0350921
0.028171
0.024978
0.0237923
0.0232196
0.0228788
0.0229523
0.0232306
0.0228792
0.0292792
0.0278706
0.0270777
0.0260615
0.0279734
0.0754999
0.08896
0.061887
0.0462082
0.0424346
0.0417041
0.0407772
0.039952