/*--------------------------------*- C++ -*----------------------------------*\
  =========                 |
  \\      /  F ield         | OpenFOAM: The Open Source CFD Toolbox
   \\    /   O peration     | Website:  https://openfoam.org
    \\  /    A nd           | Version:  6
     \\/     M anipulation  |
\*---------------------------------------------------------------------------*/
FoamFile
{
    version     2.0;
    format      ascii;
    class       volScalarField;
    location    "35";
    object      k;
}
// * * * * * * * * * * * * * * * * * * * * * * * * * * * * * * * * * * * * * //

dimensions      [0 2 -2 0 0 0 0];

internalField   nonuniform List<scalar> 
230684
(
1.42674
1.31581
1.20783
1.13706
1.04603
0.959824
0.896013
0.85862
0.861264
0.876067
0.911881
0.987623
1.09871
1.28238
1.47307
1.66668
1.89723
2.15582
2.42308
2.68401
2.90891
3.11395
3.27215
3.36211
3.39999
1.41997
1.32716
1.20092
1.03569
0.868113
0.810211
0.874
1.1292
1.03927
0.987481
1.11051
1.21756
1.26923
1.40176
1.61986
1.93427
2.30925
2.74701
3.11884
3.42831
3.61143
3.70902
3.74016
5.68279
4.97457
1.42235
1.32218
1.21587
0.951022
0.830208
1.61702
1.24923
1.79189
1.56856
1.15713
0.986876
1.12721
1.32607
1.38849
1.48247
1.78708
2.28222
2.6519
2.79807
2.80126
2.82524
2.80759
3.60225
3.90942
3.39579
1.44784
1.28423
1.09585
0.867383
0.640923
1.74905
1.3322
1.55258
1.59315
2.12537
1.89369
2.60888
1.49287
1.10048
0.792705
0.993299
1.01305
0.991052
1.01605
1.11827
1.24609
1.32097
1.79514
2.20738
1.94759
1.42086
1.32449
1.19964
0.910559
0.708789
0.766346
0.883431
0.993489
1.0819
1.80142
1.89182
2.44775
1.66948
1.14669
1.00352
1.06367
1.08653
1.04741
1.05566
1.17259
1.32426
1.38971
1.95608
2.29577
1.99323
1.4216
1.32338
1.2012
0.862965
0.488088
0.980312
0.678994
0.761299
1.69199
2.51738
2.18859
2.10787
1.94232
1.03742
0.899646
0.929604
0.916997
0.834884
0.795943
0.806729
0.970244
1.11217
1.65943
2.04266
1.76511
1.42208
1.32305
1.20253
0.86299
1.13863
0.949463
0.546409
0.598644
0.597882
0.569439
0.477988
0.893605
0.644795
1.54288
0.979831
0.915483
1.04588
1.11577
1.11374
1.14296
1.21651
1.26506
1.7074
1.95816
1.69614
1.42269
1.32213
1.21127
0.923778
0.672641
0.553273
0.423473
2.97614
1.95303
1.42078
0.960462
0.75638
1.37688
3.27778
3.82994
3.0009
2.10311
1.56201
1.30004
1.16949
1.11146
1.12178
1.52737
1.83758
1.61106
1.42274
1.322
1.21529
0.945795
0.730271
0.577915
0.42067
3.69001
2.36187
1.51337
1.08367
0.944583
4.12093
3.27688
3.96506
3.12332
1.98404
1.36318
1.09016
0.993322
0.981843
0.992112
1.42061
1.84311
1.61082
1.42268
1.32211
1.21677
0.952249
0.74199
0.598963
0.489073
1.01646
2.55721
1.39366
1.50015
1.03015
3.1011
1.95436
1.01042
1.7786
2.07233
1.77441
1.54962
1.40914
1.35521
1.31042
1.73676
2.09248
1.79702
1.42267
1.32238
1.21768
0.950955
0.692015
0.581081
0.411659
1.6063
1.24054
1.06824
0.912561
1.25796
1.15962
1.22892
1.15252
1.26081
1.7986
1.85458
1.84267
1.7533
1.59955
1.47688
1.76084
2.08961
1.8483
1.42278
1.32249
1.21995
0.966517
0.76468
0.60947
0.753651
0.815887
1.21521
0.556315
0.744389
0.585222
0.387514
0.608109
0.615724
0.595105
0.646077
0.985151
0.873455
1.00833
1.34125
1.29602
1.64071
1.63266
1.44075
1.42294
1.32232
1.22156
0.974793
0.786126
0.655821
0.669139
1.15765
1.01658
0.905076
0.981754
0.581004
2.04122
0.936107
0.846166
0.874615
1.55399
0.593871
2.43837
1.03653
0.805743
1.05363
1.50646
1.32463
1.12596
1.42292
1.32233
1.22213
0.977162
0.790624
0.657496
0.843224
1.23891
1.45675
1.51668
1.43399
1.4415
1.64947
1.31679
1.74345
0.635346
0.997865
1.2051
1.64749
2.20664
1.75933
1.12048
0.885555
0.779451
1.04555
1.42272
1.32239
1.22221
0.977297
0.788179
0.6519
0.986474
1.55125
1.7729
1.82412
1.70815
4.27754
2.21324
1.30027
1.10893
1.33915
1.20766
1.12314
1.2335
1.56567
1.6724
1.49975
1.38085
1.59309
1.68135
1.41508
1.33624
1.19686
1.03416
0.911245
0.809811
0.77546
0.999075
1.60512
1.82147
1.68344
3.25535
2.07021
1.40291
1.40352
1.54937
1.15233
1.69022
1.16296
1.60962
1.2145
0.955089
0.725684
1.91786
1.85227
1.42887
1.31115
1.20903
1.1258
1.04679
0.993531
0.897762
0.799982
0.996945
0.974166
1.05396
1.03344
2.33539
1.40813
0.993259
0.841587
0.875597
1.87703
1.95707
1.45816
0.970458
0.785247
1.11257
3.26436
2.99186
1.4338
1.30292
1.2167
1.11377
1.0646
0.952955
0.8359
0.776942
1.08084
1.35446
1.21333
1.14328
1.17545
1.20161
1.27076
0.936067
1.41283
1.23392
6.46229
4.21811
1.77726
5.61493
5.04635
4.73985
4.09835
1.42913
1.31186
1.20647
1.13022
1.04678
0.999738
0.893211
0.985027
0.975602
0.973527
0.989773
1.71081
1.97804
2.22465
1.95778
1.75333
1.5274
1.28472
6.19437
4.64633
3.50056
4.19242
4.05618
3.99959
3.72716
1.43051
1.3094
1.20919
1.12791
1.05257
0.997479
0.941346
0.898801
0.870675
0.827059
0.818153
0.806347
0.79236
0.829685
0.8791
0.981744
1.00111
1.18888
1.49576
1.6709
1.95904
2.01391
2.0507
2.08009
2.10373
1.47477
1.42745
1.36576
1.34088
1.32897
1.29444
1.22571
1.26245
1.26758
1.3119
1.44017
1.64652
1.92271
2.31067
2.83328
3.44272
4.11459
4.79738
5.40296
5.97404
6.32889
6.73883
6.84364
6.95456
6.73765
1.47477
1.42823
1.37125
1.31462
1.60843
1.37532
1.06889
2.25855
2.02237
2.3652
2.92073
3.18596
3.41127
3.88207
4.60685
5.52993
6.56801
7.55497
8.32112
8.87309
9.04006
9.32436
9.24119
10.0689
9.01309
1.47543
1.42932
1.37102
1.26813
2.80617
8.36603
7.40618
5.5206
3.77089
2.73128
2.76782
3.66036
4.99711
6.47766
7.73261
8.41373
8.61219
8.67132
8.69045
8.71467
8.07483
6.65744
6.13415
1.48178
1.42394
1.33603
1.34701
1.65684
3.89431
3.74238
3.35921
3.34481
5.53231
3.37601
3.09948
2.95414
2.69982
2.65533
2.78852
3.12769
3.34707
3.17486
2.94412
2.85883
1.47599
1.42943
1.36727
1.25265
1.42867
2.0826
1.79694
3.37892
6.22261
6.02384
5.42662
5.03919
3.02882
2.19643
1.83657
1.8224
2.24855
2.92019
3.35102
3.35101
2.96061
2.71854
1.4762
1.42679
1.38247
1.3359
1.53986
6.27142
7.06173
5.52197
5.52374
5.15919
4.00973
2.96566
2.58153
2.04883
1.66574
1.68526
2.2845
2.92449
2.88939
2.61284
2.33467
1.47615
1.42487
1.38007
1.36378
2.49512
0.598993
2.46115
3.71554
3.26862
2.92507
2.82662
2.78743
2.56671
2.54583
2.69181
2.81544
2.76216
2.51957
2.26269
1.47465
1.42689
1.36563
1.26809
1.40572
1.22803
1.50313
2.05607
6.57656
7.67386
6.99238
5.81671
3.97168
2.65163
2.21565
2.37924
2.58881
2.74759
2.70245
2.46125
2.24891
1.4745
1.4269
1.36232
1.2481
1.1422
1.03239
1.5473
6.79754
7.71733
8.06935
6.26266
3.80874
2.42818
2.05886
2.2548
2.48785
2.63431
2.72088
2.54583
2.22499
1.47464
1.42671
1.36209
1.2467
1.13857
1.04992
1.63608
8.74058
8.14058
8.50081
7.78577
2.37159
4.49717
4.58055
4.22576
4.95655
4.57338
3.51078
2.86021
2.6915
2.77323
2.8345
2.87887
2.69995
2.44142
1.47469
1.42681
1.36272
1.24983
1.48614
2.14728
2.34919
1.45879
1.58553
2.09198
2.43969
3.3859
4.0446
3.97278
3.55261
3.36113
3.31302
3.35288
3.27049
2.84667
2.5961
1.47459
1.42701
1.3638
1.25292
1.17175
1.44982
2.39121
2.56127
0.612531
3.24884
3.95389
4.25395
2.69358
2.22729
2.20708
2.11204
1.91442
1.78866
1.47425
1.42754
1.36347
1.25545
1.16162
1.48639
2.59653
4.67939
1.96459
4.27068
4.72067
2.44398
1.12844
3.68323
2.87166
0.339733
1.30327
2.20026
1.76443
1.56111
1.41525
1.47405
1.42767
1.36421
1.25696
1.16563
1.65907
3.44097
3.75269
3.13669
2.59412
2.52428
3.09739
2.55157
2.1848
3.07204
1.98986
2.58775
2.35554
5.86434
2.93909
1.68396
1.56848
1.41646
1.47398
1.42757
1.36337
1.2568
1.17204
1.85462
3.80202
4.17996
3.56765
3.35068
3.45187
12.9295
5.60024
3.36207
3.02491
2.54829
2.47806
2.71241
2.94411
3.08772
2.22781
3.6862
2.19031
2.45183
1.4733
1.42824
1.36437
1.27882
1.18833
1.19876
1.64518
2.83282
3.24724
3.22281
3.57319
8.51976
3.29864
4.7415
2.87226
2.59683
2.40385
4.9749
4.40114
1.47679
1.42308
1.3638
1.30532
1.25171
1.18823
1.1213
1.21158
1.77765
2.14989
2.66112
4.60351
0.528481
1.80008
6.90699
7.19999
6.65486
5.11651
4.93981
6.03669
7.44399
6.75114
1.4775
1.42276
1.36306
1.30704
1.24472
1.18839
1.10863
2.43464
2.28816
2.29862
2.08631
2.45031
4.27272
4.52309
3.23461
3.1315
5.46346
9.96885
10.7748
12.1484
10.8304
9.88866
8.76503
1.47799
1.4214
1.36596
1.30409
1.25158
1.19281
1.2094
2.59689
1.66463
1.39176
1.35108
3.00004
4.56516
3.3285
3.2099
3.12806
7.08657
11.8109
12.7488
8.42936
7.94764
7.65514
7.10459
1.47826
1.42057
1.36675
1.30483
1.25117
1.19757
1.14932
1.12029
1.06908
1.05297
0.999119
1.02728
1.16223
1.26118
1.63232
1.77893
2.20129
2.55787
4.67309
4.02342
4.06544
4.04602
3.96092
3.85733
3.78367
1.47967
1.44632
1.41192
1.42207
1.43167
1.44228
1.41745
1.47098
1.47507
1.5241
1.64318
1.83613
2.12842
2.57056
3.31457
4.30123
5.24988
6.1554
6.9177
7.5948
8.02202
8.45716
8.6967
8.62039
8.49333
1.48077
1.44733
1.41574
1.4321
1.71668
1.75311
1.92225
2.19391
2.36924
2.65221
3.15111
3.73701
4.38105
5.19823
6.22903
7.44329
8.69325
9.81051
10.667
11.2477
11.615
11.8521
11.8724
11.8369
10.9314
1.4824
1.44736
1.42348
1.42439
2.57471
4.8739
3.9998
3.48612
3.33379
3.04118
2.84729
2.89314
3.52632
4.82297
6.33435
7.86876
9.11998
9.89293
10.2727
10.4806
10.6134
10.6833
9.61912
7.50703
7.23322
1.48318
1.44995
1.42753
1.40866
1.74032
4.75182
3.71501
3.38463
3.1037
2.82005
2.75604
4.88146
4.09485
3.36147
3.01084
2.95048
2.96018
2.85444
2.81553
2.82293
2.90206
3.03557
2.80254
2.58392
2.77816
1.48485
1.44559
1.43321
1.45022
1.88686
3.08351
3.33527
5.08112
7.3172
6.40869
5.22386
7.76279
6.08283
4.67892
3.28194
2.41386
1.98744
1.73776
1.60307
1.6474
1.87545
2.21591
2.3024
2.12626
2.13086
1.48362
1.44708
1.4555
1.61052
3.96528
8.93522
11.4572
9.32152
7.02581
5.44279
3.92557
3.11738
2.51373
2.10302
1.796
1.59916
1.59389
1.78831
2.07619
2.13725
1.9442
1.89121
1.48413
1.44156
1.44895
1.64636
9.19331
3.01594
3.95552
3.97724
3.50042
3.28487
2.99961
2.3388
1.89977
1.8501
1.95253
2.0734
2.0559
1.91829
1.84949
1.48214
1.44313
1.42495
1.45102
1.82289
1.96326
2.33608
2.60751
5.71517
7.12373
6.9684
5.45515
3.65242
2.30823
1.77416
1.84635
2.05269
2.21216
2.17304
1.99407
1.9371
1.48149
1.44327
1.4154
1.38693
1.37415
1.51894
3.72116
2.61909
6.11426
7.85377
7.35577
5.59866
3.41268
2.09242
1.68952
1.82894
2.07657
2.26299
2.20843
2.00838
1.93964
1.48151
1.44281
1.41303
1.37618
1.3478
1.58392
3.03523
11.8699
10.384
11.9367
6.74416
2.95464
3.38319
3.02088
3.85625
4.00869
3.40044
2.39112
1.914
1.91367
2.04654
2.17946
2.16397
2.0238
1.98096
1.48141
1.44256
1.41267
1.37599
1.40297
1.95392
6.68574
3.63279
2.57597
2.30157
2.02333
1.82489
1.8798
2.01161
2.56646
2.96516
3.1766
2.89519
2.44362
2.27838
2.30071
2.38084
2.3424
2.16232
2.12174
1.48095
1.4427
1.41268
1.37311
1.38506
2.10119
3.63671
4.5095
3.56311
2.14209
1.31393
1.33195
1.30939
1.30703
1.32615
1.34181
1.86223
3.07509
2.97726
2.72652
2.19802
2.01563
2.02032
1.87394
1.83541
1.48011
1.44344
1.41249
1.36963
1.37699
2.41874
3.34468
3.2419
3.09612
3.60147
2.884
3.12641
3.33161
3.22827
2.87753
1.95897
1.2794
4.41639
5.58757
3.03687
2.13893
1.71149
1.66804
1.60941
1.52123
1.4794
1.44426
1.41212
1.36787
1.39476
2.69491
3.90541
3.07131
2.50441
2.39621
2.53185
2.63178
3.2494
3.17739
3.05767
2.82369
2.4046
2.0631
2.4451
2.46097
2.09448
1.79914
1.6664
1.72271
1.71757
1.47953
1.44374
1.41154
1.36622
1.42481
2.83156
4.16508
3.3352
2.49704
2.36134
2.62445
7.97191
8.72253
6.34495
4.32833
2.94556
2.36632
2.21514
2.14351
2.53129
2.44759
2.26192
2.56899
3.71149
3.53564
1.4802
1.44291
1.40961
1.36421
1.33831
1.551
2.35799
3.2712
3.1832
2.74822
2.87594
7.46505
11.3955
7.43176
5.82793
4.77947
3.89366
4.18033
4.23089
4.55405
4.71314
4.985
5.67834
6.96751
6.70891
1.48111
1.44262
1.3995
1.36476
1.32001
1.27002
1.29004
1.58958
2.07885
2.44205
2.77003
5.06842
9.13839
11.5616
9.03761
7.10667
5.88869
6.31908
8.70588
9.14096
8.81794
9.48353
9.373
9.11902
8.65484
1.48101
1.44287
1.40137
1.36006
1.32321
1.27783
1.2723
2.08376
2.59564
2.48493
2.49173
2.95715
4.03303
4.442
4.33609
4.48212
4.95779
6.27433
13.9714
12.2835
11.6563
10.1494
10.0825
9.55812
9.29069
1.48175
1.44139
1.40413
1.35814
1.32483
1.27693
1.31522
2.99948
1.90384
1.52981
1.73613
2.41964
3.06485
3.59277
3.28653
3.35442
3.37275
4.65875
8.7967
7.83783
6.99071
6.53002
6.74292
6.70966
6.7555
1.48209
1.44086
1.40417
1.35954
1.32271
1.28052
1.25004
1.23086
1.20031
1.18069
1.18839
1.22118
1.27974
1.39719
1.62156
2.04327
2.75421
3.65431
4.92616
5.28332
5.02173
4.97153
4.95875
4.82192
4.75464
1.48016
1.4478
1.42049
1.42996
1.45418
1.47684
1.48584
1.50124
1.53716
1.62386
1.78789
2.03861
2.39763
2.91863
3.72764
4.90172
6.01483
7.05513
7.87448
8.57132
8.93245
9.33904
9.66214
9.60098
9.49997
1.48149
1.44837
1.42539
1.43937
1.53487
1.68767
1.8601
2.13078
2.3657
2.66791
3.25054
4.0781
5.03184
6.07701
7.27016
8.60829
9.93349
11.088
11.9656
12.608
12.9608
13.2037
13.1417
12.8296
11.8659
1.48287
1.44901
1.43228
1.4383
1.67312
2.6008
2.92161
2.90641
2.66392
2.58432
2.93129
3.47334
4.26818
5.38331
6.78689
8.30558
9.58934
10.4285
10.8831
11.1501
11.3193
11.411
10.1627
7.82781
7.72141
1.48331
1.45143
1.43625
1.43658
1.58261
2.40668
2.78018
2.74874
2.57925
2.51805
2.45858
2.58013
2.63348
2.63592
2.60625
2.66944
2.72388
2.69042
2.66708
2.65
2.66062
2.68406
2.40968
2.30705
2.53815
1.48554
1.44788
1.44361
1.47058
1.7931
2.63449
3.09148
3.86122
6.39548
6.39115
4.89104
4.24532
3.87935
3.27041
2.65331
2.15355
1.81991
1.59401
1.47314
1.44798
1.4823
1.54399
1.55684
1.54821
1.61173
1.48483
1.44838
1.45589
1.57562
2.88495
4.32727
4.39944
12.5458
10.3375
8.2313
9.4825
7.12183
4.16676
3.22581
2.8373
2.36585
1.95062
1.6382
1.46928
1.42804
1.45777
1.51285
1.52125
1.47983
1.48532
1.48479
1.44427
1.45009
1.57621
3.22896
3.87846
3.91567
7.90134
3.01206
3.33965
3.27462
3.07122
2.65103
1.99386
1.59188
1.48248
1.48817
1.51778
1.51152
1.47624
1.47421
1.48257
1.44587
1.43374
1.4616
1.65049
2.07703
4.28011
4.13296
4.53155
5.54382
4.71071
3.81732
2.88809
2.03568
1.6145
1.50648
1.52871
1.56533
1.55204
1.51477
1.51497
1.48204
1.44532
1.42492
1.4119
1.43115
1.82045
6.83706
2.54755
5.96899
5.67743
5.20409
4.16625
2.81099
1.8739
1.5239
1.49163
1.5389
1.5836
1.56628
1.52014
1.52337
1.48197
1.44467
1.42259
1.39999
1.40943
1.93767
3.7876
13.047
12.7868
11.2276
7.11522
2.87105
2.73081
2.86958
3.48812
3.40461
2.69011
1.89995
1.55486
1.49877
1.52063
1.55674
1.55525
1.52846
1.53526
1.48161
1.44456
1.42221
1.39643
1.42995
2.21839
3.58837
5.68842
6.27134
6.12824
4.80977
3.31771
2.53826
2.57255
2.73666
2.71439
2.54655
2.17875
1.86793
1.72334
1.66829
1.66716
1.64598
1.61513
1.61065
1.48077
1.4452
1.42201
1.39294
1.45262
2.59482
3.43605
4.00121
4.89714
4.71882
3.9989
3.0438
2.48465
2.38456
2.41114
2.56409
2.7883
2.74375
2.49021
2.27784
1.99432
1.85751
1.75533
1.61267
1.58115
1.47968
1.44642
1.4211
1.38933
1.4686
2.94962
3.42781
2.78228
2.58691
2.44738
2.69819
2.70426
2.71139
2.60278
2.36608
2.14262
2.05201
1.99863
2.17027
2.1601
1.90951
1.76616
1.66254
1.55142
1.51994
1.47874
1.44769
1.41991
1.38916
1.50563
3.25333
3.76853
2.67768
2.09942
1.98481
2.12691
2.45924
2.79446
2.7934
2.56075
2.18489
1.9786
1.88168
1.8922
2.11098
1.97194
1.79582
1.6987
2.00876
2.06526
1.47904
1.44694
1.41895
1.38835
1.56093
3.35863
4.09776
2.92979
2.08742
1.8777
1.99453
2.75363
5.27217
4.86951
3.61031
2.61432
2.21429
2.13855
2.19882
2.52926
2.76798
2.89661
3.66233
5.15907
4.88045
1.4807
1.44431
1.41869
1.37569
1.40369
1.70746
2.82833
3.32596
2.9986
2.46159
2.4044
3.16205
4.90588
5.05959
4.92316
4.61368
4.6762
5.10975
5.73345
6.48426
7.12844
7.48716
8.71335
8.72462
8.45134
1.4815
1.44372
1.40744
1.37935
1.33195
1.31532
1.40086
1.64585
1.94447
2.41332
2.64457
3.11905
3.68628
3.79209
4.13541
4.65562
4.884
5.52497
7.01133
8.25737
8.91312
9.37242
9.60214
9.64917
9.63563
1.48079
1.44523
1.40757
1.3743
1.34277
1.30307
1.31604
1.51227
1.66421
1.84305
2.15926
2.5378
3.01142
3.31055
3.57206
3.84446
3.94774
4.47649
6.18797
6.87518
7.4996
8.11421
8.76344
8.94592
9.04809
1.48128
1.44412
1.41067
1.371
1.3454
1.30256
1.29332
1.3358
1.33584
1.36811
1.45036
1.69441
2.11716
2.5407
2.97484
3.32788
3.54699
3.97039
5.07002
5.56007
5.82404
6.05525
6.29772
6.79515
6.80275
1.48156
1.4437
1.41072
1.37263
1.34219
1.30727
1.2843
1.26877
1.247
1.24761
1.26485
1.31706
1.38747
1.4993
1.84451
2.36476
3.03033
3.67887
4.30331
4.81371
4.87949
4.92647
4.97042
5.03692
5.05327
1.48038
1.44786
1.41845
1.4205
1.42843
1.44388
1.45828
1.48356
1.53921
1.65535
1.85959
2.16714
2.59136
3.17744
4.05215
5.35375
6.58747
7.70098
8.51426
9.05347
9.44257
9.79254
10.0922
10.1394
10.0944
1.48187
1.44714
1.42742
1.42664
1.45889
1.54843
1.73678
2.00054
2.23684
2.62151
3.32661
4.31961
5.48361
6.69358
7.98232
9.35638
10.6763
11.8137
12.6748
13.2657
13.6454
13.8609
13.7141
13.3414
12.412
1.48287
1.44809
1.43308
1.42818
1.49307
1.98672
2.49229
2.46658
2.27757
2.4462
3.03205
3.82825
4.74533
5.82377
7.14323
8.57036
9.79079
10.6304
11.1099
11.3912
11.5645
11.6586
10.3358
7.98286
7.93231
1.48302
1.45057
1.43595
1.43284
1.49991
1.96771
2.37265
2.2922
2.17908
2.18284
2.21571
2.16061
2.16005
2.19219
2.26844
2.39404
2.51124
2.5323
2.54489
2.53972
2.54997
2.55974
2.2887
2.25093
2.48815
1.48461
1.44915
1.4389
1.45224
1.60736
2.13139
2.63613
3.31184
5.32725
5.44304
4.12611
3.1769
2.68187
2.38304
2.10573
1.8607
1.65353
1.49391
1.40314
1.3704
1.36692
1.37339
1.36876
1.38215
1.42519
1.48489
1.44672
1.44728
1.49463
1.88642
2.68619
3.62727
15.8976
19.095
13.4725
10.4424
5.30986
3.13046
2.7359
2.48263
2.10807
1.77713
1.53019
1.39827
1.35129
1.34403
1.34909
1.34327
1.32127
1.31921
1.48405
1.44587
1.44257
1.48879
1.79546
2.38483
4.36218
12.2002
2.37725
2.61855
2.69329
2.52737
2.22777
1.801
1.51973
1.38427
1.35198
1.34996
1.34177
1.31819
1.31192
1.48232
1.44648
1.4307
1.44142
1.52666
1.99577
6.67174
5.35091
3.90089
4.55836
3.32073
2.68751
2.18709
1.77629
1.55869
1.40476
1.36286
1.35926
1.34966
1.32839
1.32479
1.48209
1.44519
1.42586
1.41362
1.44236
1.99998
9.07825
2.4926
7.46963
4.13902
3.74325
3.07184
2.28985
1.70987
1.47147
1.38274
1.36198
1.3628
1.35369
1.33267
1.33082
1.48188
1.44465
1.42411
1.40324
1.42988
2.12649
4.05924
13.2064
12.1576
9.57184
6.06433
2.30178
2.13389
2.84389
3.16094
2.90541
2.27166
1.72398
1.46019
1.37505
1.35704
1.35915
1.35524
1.34058
1.33982
1.48131
1.44484
1.42382
1.39926
1.44824
2.38661
3.16058
3.67103
4.54867
4.82643
3.99798
2.94352
2.56818
2.5836
2.48742
2.21832
1.93206
1.69076
1.53678
1.45799
1.41402
1.39872
1.39069
1.3779
1.37519
1.48019
1.44593
1.42339
1.39685
1.48345
2.78281
3.24324
3.00256
3.01556
2.99359
2.66283
2.38918
2.28287
2.20098
2.12485
2.0231
1.94245
1.85987
1.7643
1.68414
1.583
1.51743
1.46347
1.40972
1.39897
1.47902
1.44743
1.4219
1.39557
1.51718
3.15331
3.40371
2.54982
2.16347
2.05732
2.07635
2.19016
2.26276
2.17653
2.01738
1.8559
1.76437
1.73303
1.75072
1.75252
1.63691
1.54821
1.47619
1.46548
1.47983
1.47797
1.44909
1.42
1.39694
1.56814
3.48854
3.69327
2.59074
1.91184
1.73102
1.78822
1.98849
2.17521
2.22414
2.04794
1.8048
1.67355
1.61753
1.61999
1.66923
1.63808
1.58679
1.65545
2.24465
2.40431
1.47844
1.44809
1.41882
1.39637
1.63844
3.62257
4.086
2.83525
1.9832
1.72045
1.77426
2.06071
2.77989
2.99074
2.62501
2.26044
2.16923
2.29575
2.54967
2.91959
3.31397
3.62902
4.71857
6.42005
6.11449
1.48066
1.44426
1.42062
1.37944
1.42506
1.79298
3.03005
3.37778
2.94126
2.38909
2.27721
2.52857
3.41348
4.18517
4.57879
4.86968
5.35611
6.04049
6.92931
7.91446
8.74975
9.34196
10.1071
10.0451
9.88882
1.4819
1.4427
1.41038
1.38052
1.33517
1.33718
1.4412
1.66829
2.01091
2.43881
2.65143
2.81867
3.07736
3.33807
3.69515
4.19868
4.80762
5.35655
6.39643
7.50991
8.47335
9.35162
9.77174
10.2877
10.342
1.4808
1.44525
1.40785
1.3782
1.34677
1.30934
1.31452
1.35369
1.43674
1.6052
2.01041
2.41881
2.771
3.06992
3.36548
3.67369
3.96664
4.26582
4.73028
5.50858
6.28466
7.09982
7.85004
8.68382
8.98121
1.48093
1.44473
1.41065
1.3748
1.34746
1.31637
1.28886
1.28537
1.29818
1.33466
1.42455
1.57401
1.9793
2.40218
2.87598
3.3269
3.7142
4.06394
4.49142
4.9306
5.28458
5.63635
5.89495
6.412
6.62328
1.48118
1.44422
1.4112
1.3755
1.34589
1.31622
1.29536
1.27526
1.26509
1.27338
1.30101
1.35602
1.45767
1.62812
2.08686
2.6618
3.27874
3.85287
4.33175
4.74683
4.93024
4.99107
5.05168
5.13157
5.18643
1.48128
1.44589
1.41895
1.41007
1.4105
1.41584
1.42462
1.45544
1.52626
1.6678
1.90873
2.26579
2.7495
3.40332
4.35738
5.73385
7.0404
8.19156
9.00171
9.50329
9.87695
10.2049
10.4952
10.5317
10.4903
1.48189
1.44656
1.4267
1.41772
1.42607
1.4797
1.62075
1.88487
2.15427
2.60094
3.3942
4.49204
5.79605
7.13847
8.50992
9.89193
11.1762
12.2723
13.093
13.6464
13.9911
14.2347
14.0924
13.6498
12.7557
1.4827
1.44721
1.43116
1.41821
1.43565
1.77391
2.25759
2.23141
2.10026
2.35078
3.03098
3.97514
5.04961
6.20418
7.49668
8.80894
9.91301
10.7036
11.1779
11.4604
11.632
11.7266
10.3795
8.055
8.03961
1.48278
1.44915
1.43414
1.4239
1.45525
1.7976
2.1369
2.02179
1.88851
1.88608
1.96639
1.98682
1.97586
2.00252
2.09985
2.23772
2.35303
2.42251
2.47545
2.49196
2.49778
2.51891
2.25842
2.25062
2.50881
1.48311
1.45011
1.4346
1.4341
1.49621
1.84655
2.2633
2.74438
3.81418
3.89694
3.15234
2.62694
2.26059
2.02301
1.85514
1.70426
1.56232
1.44944
1.38366
1.35513
1.34422
1.34047
1.33464
1.35853
1.39815
1.48332
1.44902
1.43669
1.44934
1.5681
1.94715
2.90276
14.9098
10.7605
8.62672
5.45716
3.651
2.7362
2.43693
2.19505
1.90511
1.65131
1.4679
1.3726
1.33504
1.3216
1.31602
1.31021
1.29703
1.29034
1.48264
1.44781
1.4332
1.445
1.53611
1.86956
4.41297
18.087
2.10671
2.10294
2.20651
2.05134
1.8383
1.61682
1.44803
1.35448
1.3248
1.31631
1.30929
1.29721
1.28039
1.48214
1.44615
1.42827
1.42581
1.46755
1.86983
7.21019
8.4486
6.12221
2.80929
3.2224
2.66286
2.03333
1.64249
1.465
1.36342
1.32714
1.31757
1.31032
1.29943
1.28421
1.48203
1.44485
1.4252
1.41022
1.4378
2.03493
8.6795
1.74537
4.28117
3.41421
3.64614
2.8165
2.07514
1.61109
1.41795
1.34934
1.32496
1.31784
1.31198
1.30188
1.28818
1.48172
1.4445
1.42403
1.40241
1.43343
2.18288
3.88663
11.6399
9.71029
7.16622
4.53497
1.99067
2.18024
2.97671
2.91458
2.44915
1.95829
1.59329
1.40816
1.34357
1.32311
1.31742
1.31417
1.30649
1.29463
1.48095
1.44495
1.42381
1.3987
1.45268
2.42302
2.99108
3.04411
3.42746
3.54658
3.03423
2.48953
2.40643
2.41139
2.25563
1.96372
1.68863
1.50323
1.40822
1.36211
1.33705
1.32782
1.32584
1.32112
1.31275
1.47971
1.44635
1.42324
1.39732
1.49251
2.79181
3.12969
2.52101
2.27945
2.2193
2.13187
2.04583
2.0037
1.96107
1.87055
1.72163
1.59079
1.51212
1.46072
1.42158
1.38413
1.36442
1.35395
1.34508
1.34435
1.47851
1.44811
1.4214
1.3979
1.53942
3.20488
3.37689
2.4515
1.92454
1.77303
1.77569
1.8394
1.88215
1.84773
1.75777
1.637
1.54315
1.49471
1.46919
1.44676
1.41082
1.38952
1.37527
1.44427
1.48703
1.47746
1.45002
1.41876
1.39963
1.60226
3.58871
3.69549
2.59386
1.867
1.6329
1.65259
1.74502
1.82455
1.84303
1.75358
1.62324
1.53495
1.49109
1.47523
1.47994
1.48608
1.49544
1.66044
2.47983
2.70316
1.47808
1.44872
1.41775
1.39927
1.68437
3.76548
4.12651
2.8404
1.97924
1.69152
1.70161
1.8207
2.03505
2.19015
2.14878
2.11293
2.22812
2.51009
2.90095
3.36812
3.8569
4.28866
5.60644
7.44572
7.15472
1.4805
1.44441
1.42105
1.38046
1.43897
1.84708
3.14322
3.45088
2.97467
2.39316
2.23382
2.3715
2.89409
3.60876
4.29337
4.97284
5.7737
6.71341
7.76826
8.85916
9.80733
10.5444
11.1504
11.1402
10.9324
1.48218
1.44184
1.41248
1.37879
1.33771
1.34799
1.46816
1.70621
2.09054
2.50848
2.69466
2.79797
2.95569
3.16863
3.55118
4.15607
4.91611
5.64449
6.55217
7.57283
8.51178
9.44583
10.0379
10.6329
10.8274
1.481
1.4449
1.40793
1.37928
1.34699
1.31198
1.31547
1.34892
1.42936
1.58511
1.97975
2.40781
2.74003
3.01964
3.33342
3.67176
4.04758
4.39269
4.81343
5.45343
6.14991
6.90525
7.58534
8.42655
8.91884
1.48075
1.44506
1.41009
1.3758
1.34762
1.31953
1.28975
1.28595
1.29903
1.33653
1.4308
1.57718
1.97688
2.43908
2.92567
3.40385
3.85703
4.22686
4.56756
4.91491
5.23543
5.52673
5.79584
6.21965
6.53099
1.48096
1.44453
1.41091
1.37614
1.34592
1.31973
1.29713
1.27534
1.27368
1.28475
1.31583
1.38116
1.49749
1.77056
2.2637
2.87779
3.51049
4.1013
4.55296
4.87759
5.09087
5.1983
5.24615
5.29483
5.33653
1.48174
1.44501
1.41779
1.40571
1.39595
1.3938
1.40304
1.44341
1.53522
1.70927
1.99035
2.39389
2.92759
3.63539
4.64722
6.06743
7.41959
8.58556
9.37524
9.86548
10.2374
10.5565
10.8932
10.8485
10.814
1.48175
1.4462
1.42507
1.41199
1.40764
1.44636
1.56763
1.84954
2.16895
2.68605
3.54601
4.70751
6.09303
7.52958
8.96882
10.3568
11.6096
12.6594
13.4345
13.9639
14.3245
14.5581
14.4141
13.9397
13.0683
1.48249
1.44639
1.42953
1.41244
1.41407
1.71308
2.1861
2.18398
2.08786
2.3675
3.06811
4.07729
5.26683
6.5262
7.84287
9.06963
10.0611
10.779
11.2263
11.5059
11.6766
11.7632
10.4083
8.12984
8.16095
1.48262
1.44781
1.43191
1.41559
1.43041
1.73821
2.05622
1.93118
1.75031
1.73558
1.81854
1.91207
1.93103
1.97102
2.07571
2.21003
2.31474
2.38558
2.45717
2.48244
2.49939
2.52164
2.27725
2.28219
2.59837
1.48261
1.44872
1.43304
1.42209
1.4476
1.72738
2.07002
2.28293
2.62432
2.69215
2.48353
2.28022
2.06173
1.88767
1.76559
1.65303
1.54258
1.45487
1.40318
1.37817
1.36538
1.35859
1.36167
1.41627
1.46036
1.48248
1.44838
1.43259
1.42864
1.46799
1.7191
2.41524
6.6393
9.13151
6.50039
4.48892
3.16008
2.49038
2.23641
2.02576
1.79632
1.59319
1.45374
1.38471
1.35607
1.34249
1.33494
1.33648
1.35184
1.34509
1.48218
1.44703
1.43014
1.42624
1.46079
1.70279
3.32873
20.5147
18.5903
13.0314
7.58272
4.2227
2.63128
2.61211
2.42722
2.07766
1.75718
1.52794
1.41248
1.36336
1.34338
1.33474
1.33586
1.34993
1.33504
1.48208
1.44542
1.42661
1.41658
1.44153
1.78465
5.08379
21.4101
20.6292
13.1114
7.52158
4.18795
2.71846
3.07026
3.14958
2.4886
1.9016
1.5547
1.4178
1.3657
1.34377
1.33494
1.33615
1.3507
1.33603
1.48194
1.44443
1.42438
1.4069
1.42983
1.96875
5.19945
19.783
15.6463
9.93782
5.94933
3.45575
2.76259
3.40783
3.29238
2.53008
1.90729
1.54296
1.40298
1.35957
1.34219
1.33491
1.3373
1.3527
1.339
1.4815
1.44429
1.42365
1.40092
1.43095
2.15574
3.38949
6.40515
6.88602
5.16115
3.60568
2.5941
2.67075
2.93361
2.68762
2.20601
1.78795
1.51466
1.39715
1.35681
1.3411
1.33479
1.33938
1.35625
1.34396
1.48065
1.44495
1.42353
1.39771
1.45048
2.39635
2.8902
2.66613
2.66762
2.63933
2.40131
2.23172
2.23994
2.23181
2.0841
1.8358
1.60783
1.46121
1.39145
1.3599
1.34375
1.33791
1.34406
1.36404
1.35567
1.47935
1.44663
1.42293
1.3974
1.49506
2.7668
3.07141
2.37094
1.98231
1.89056
1.87237
1.87618
1.87533
1.8516
1.77474
1.64675
1.52627
1.4469
1.40168
1.37361
1.35496
1.34855
1.35524
1.38253
1.38583
1.47816
1.44861
1.42093
1.39886
1.55279
3.22715
3.37969
2.46295
1.85884
1.66773
1.67142
1.72852
1.75079
1.73394
1.67599
1.58746
1.50444
1.44627
1.40971
1.38483
1.36766
1.36259
1.37463
1.5058
1.56699
1.47721
1.4506
1.41739
1.40129
1.6249
3.6663
3.73997
2.63658
1.90305
1.63289
1.63332
1.68876
1.72237
1.71231
1.66162
1.58399
1.51769
1.47662
1.45782
1.45867
1.47322
1.49742
1.71697
2.7715
2.99862
1.47785
1.44921
1.41673
1.40146
1.72422
3.88698
4.18785
2.88691
2.02182
1.71769
1.69507
1.74954
1.82644
1.91483
1.98187
2.09414
2.33375
2.71418
3.19148
3.74051
4.30535
4.81788
6.30205
8.29159
8.03996
1.48026
1.4447
1.42098
1.38139
1.45423
1.90171
3.28905
3.565
3.04337
2.4572
2.26721
2.35171
2.73554
3.37239
4.15567
5.0542
6.09476
7.23463
8.42217
9.59279
10.6232
11.4574
12.0431
11.8976
11.826
1.48222
1.4414
1.41435
1.37629
1.34011
1.36076
1.50669
1.76969
2.21782
2.6401
2.8027
2.8796
3.01132
3.20058
3.59311
4.27614
5.09633
5.96795
6.8938
7.85865
8.77394
9.68753
10.3457
10.9799
11.2466
1.48124
1.44447
1.40802
1.3804
1.34546
1.3141
1.32104
1.36131
1.45581
1.62886
2.05643
2.48296
2.80825
3.07833
3.39732
3.75928
4.15434
4.548
5.05661
5.6782
6.33588
7.01687
7.66591
8.357
8.93009
1.4807
1.44517
1.40979
1.37595
1.34832
1.31916
1.291
1.28983
1.30691
1.34986
1.45113
1.60947
2.02974
2.52717
3.03047
3.53262
3.9983
4.39681
4.74827
5.08077
5.38014
5.63358
5.866
6.19629
6.53562
1.4808
1.44475
1.41069
1.37622
1.34569
1.32164
1.29566
1.27656
1.27826
1.29125
1.32863
1.40204
1.53617
1.86852
2.41093
3.0683
3.7303
4.33155
4.79002
5.08908
5.26429
5.37758
5.41361
5.45931
5.49282
1.48198
1.44451
1.41659
1.40352
1.38604
1.38216
1.40106
1.46494
1.59282
1.81043
2.13686
2.58199
3.15133
3.87661
4.86093
6.31479
7.72484
8.89813
9.63015
10.1252
10.5208
10.8452
11.1198
11.1257
11.0771
1.48168
1.44574
1.42411
1.409
1.39551
1.4396
1.58805
1.95108
2.3684
2.97921
3.90265
5.11517
6.54604
8.03729
9.51893
10.9118
12.1416
13.1453
13.8803
14.3775
14.7905
15.0082
14.8333
14.2089
13.5089
1.48233
1.4457
1.42825
1.40824
1.40486
1.73166
2.28509
2.36316
2.34337
2.6726
3.38525
4.41996
5.66784
7.00154
8.33726
9.49286
10.3851
11.0177
11.4211
11.686
11.8489
11.9171
10.5545
8.3308
8.36565
1.48246
1.44676
1.43005
1.41035
1.41795
1.75002
2.14125
2.07099
1.89375
1.88524
1.95246
2.05569
2.10464
2.16511
2.2717
2.38827
2.47056
2.51524
2.56578
2.58559
2.60162
2.61453
2.40032
2.4443
2.78992
1.48246
1.44729
1.43087
1.41397
1.42624
1.71491
2.07463
2.14321
2.22423
2.29646
2.34123
2.27314
2.13261
1.99429
1.87821
1.76431
1.65458
1.56977
1.51813
1.48944
1.47171
1.46034
1.47672
1.56473
1.60555
1.48228
1.44697
1.43034
1.41752
1.43438
1.68362
2.18552
3.25689
4.72319
4.31758
3.51022
2.9226
2.54081
2.30369
2.08827
1.86608
1.67627
1.55295
1.49275
1.46445
1.44728
1.43572
1.4532
1.50025
1.47659
1.48203
1.44587
1.428
1.41657
1.43443
1.68414
2.63904
7.7762
10.0025
7.38993
5.08816
3.50273
2.92663
2.80415
2.50452
2.10786
1.78051
1.58171
1.49917
1.46584
1.44722
1.43558
1.45299
1.4981
1.46483
1.48196
1.44467
1.42522
1.4107
1.42877
1.77082
3.33963
11.47
11.3982
8.25343
5.56606
3.60516
3.13841
3.22471
2.93895
2.33297
1.85775
1.59543
1.4994
1.46511
1.44652
1.43585
1.45341
1.49834
1.46458
1.48177
1.44395
1.42371
1.4043
1.42438
1.94275
3.42935
9.12468
9.18782
6.65439
4.59934
3.21299
3.14023
3.31232
2.96989
2.33621
1.8549
1.5911
1.49386
1.4613
1.44479
1.4354
1.45429
1.49966
1.46641
1.48126
1.44401
1.42334
1.39941
1.42984
2.15087
2.94903
3.65843
4.10509
3.62478
3.01818
2.74113
2.79096
2.83694
2.55013
2.12475
1.77764
1.57389
1.49044
1.45861
1.44316
1.43538
1.45615
1.5018
1.46958
1.48032
1.445
1.42335
1.39681
1.45217
2.41439
2.85925
2.49318
2.37463
2.33169
2.26997
2.26946
2.28846
2.24713
2.09547
1.87308
1.67561
1.55017
1.48788
1.45825
1.44284
1.43644
1.45896
1.50622
1.47706
1.47899
1.44697
1.42263
1.39723
1.50389
2.82256
3.12582
2.46514
2.02435
1.924
1.92323
1.9828
1.98836
1.94983
1.86218
1.7404
1.62514
1.54172
1.49174
1.46263
1.44637
1.44142
1.46533
1.51828
1.50505
1.47789
1.44906
1.42028
1.39941
1.57334
3.34363
3.49964
2.6345
2.02114