/*--------------------------------*- C++ -*----------------------------------*\
  =========                 |
  \\      /  F ield         | OpenFOAM: The Open Source CFD Toolbox
   \\    /   O peration     | Website:  https://openfoam.org
    \\  /    A nd           | Version:  6
     \\/     M anipulation  |
\*---------------------------------------------------------------------------*/
FoamFile
{
    version     2.0;
    format      ascii;
    class       volScalarField;
    location    "35";
    object      nut;
}
// * * * * * * * * * * * * * * * * * * * * * * * * * * * * * * * * * * * * * //

dimensions      [0 2 -1 0 0 0 0];

internalField   nonuniform List<scalar> 
230684
(
0.940664
0.903661
0.867273
0.842387
0.403427
0.385124
0.372771
0.715639
0.706247
0.699278
0.695631
0.663982
0.687553
0.742178
0.806348
0.869025
0.944945
1.02698
1.10792
1.18364
1.2469
1.3018
1.34275
1.36739
1.38021
0.938143
0.907917
0.432203
0.400552
0.180241
0.165319
0.0814407
0.403258
0.395607
0.36474
0.383258
0.414429
0.417336
0.433947
0.460076
0.499681
0.54635
0.618778
0.657792
0.691918
0.708414
0.722284
0.725665
1.7942
1.69943
0.938899
0.905837
0.43404
0.191743
0.176744
0.157065
0.13876
0.24372
0.236408
0.207953
0.183157
0.190883
0.204046
0.221987
0.22813
0.248152
0.279896
0.30766
0.32255
0.321481
0.320795
0.321889
0.732048
1.55216
1.44282
0.986743
0.435122
0.200327
0.172908
0.152265
0.159968
0.11175
0.241888
0.234604
0.279166
0.267838
0.123005
0.0968674
0.0841235
0.054494
0.185773
0.191294
0.191201
0.189525
0.19715
0.209341
0.217659
0.508916
1.12017
1.06927
0.938237
0.90611
0.430808
0.184506
0.157104
0.161993
0.177547
0.19677
0.187062
0.246342
0.242539
0.11198
0.104126
0.0836538
0.0713208
0.183234
0.192933
0.188928
0.187814
0.195843
0.209956
0.218061
0.518217
1.1876
1.03401
0.938629
0.90744
0.432277
0.180175
0.0656568
0.1255
0.100788
0.108431
0.246325
0.312968
0.29192
0.26534
0.228774
0.167768
0.0552204
0.162756
0.18431
0.160858
0.162767
0.16215
0.177522
0.193087
0.477422
1.09069
1.00336
0.938711
0.906878
0.43273
0.179489
0.116253
0.122268
0.091729
0.0851551
0.0940132
0.0964724
0.0860479
0.117441
0.0806824
0.280606
0.189263
0.193929
0.211997
0.212101
0.202029
0.19802
0.204484
0.211248
0.492514
1.07333
0.978065
0.938628
0.905175
0.433626
0.188738
0.158952
0.13938
0.120616
0.188098
0.159634
0.153611
0.127
0.112248
0.10361
0.390219
0.412264
0.377628
0.311684
0.259789
0.229519
0.214352
0.202315
0.199329
0.46075
1.03835
0.947287
0.93812
0.904392
0.433659
0.191045
0.167502
0.149068
0.122928
0.244639
0.194101
0.159879
0.135087
0.118057
0.366306
0.386729
0.424673
0.382576
0.302522
0.24387
0.211255
0.193898
0.189151
0.188309
0.440942
1.03035
0.940953
0.937879
0.904103
0.433507
0.191399
0.167671
0.150067
0.13247
0.0867558
0.286591
0.209627
0.201481
0.11613
0.335803
0.2755
0.192755
0.277584
0.302396
0.266367
0.247606
0.220528
0.220274
0.222069
0.498079
1.13041
1.01306
0.93769
0.904133
0.4335
0.190974
0.149333
0.0449615
0.0451421
0.151929
0.129683
0.12143
0.112677
0.11473
0.0900491
0.19265
0.194222
0.195209
0.246318
0.25485
0.258121
0.258547
0.248836
0.238767
0.508542
1.10207
1.05404
0.937677
0.904032
0.433916
0.19278
0.168171
0.144099
0.0824816
0.15726
0.11622
0.113748
0.10494
0.0906579
0.0519076
0.084997
0.09184
0.0886301
0.0749633
0.152092
0.0766605
0.0893864
0.204965
0.21687
0.496638
1.00921
0.950269
0.937741
0.903881
0.434257
0.193872
0.173806
0.15998
0.148555
0.192974
0.112071
0.0975061
0.095966
0.0635501
0.247537
0.103675
0.0532788
0.0912818
0.0716931
0.158882
0.169407
0.0911601
0.0681203
0.17959
0.464293
0.4158
0.826093
0.937598
0.903979
0.4344
0.194141
0.174673
0.158637
0.158356
0.197666
0.218834
0.225827
0.229742
0.213454
0.239228
0.183859
0.199776
0.0383179
0.169546
0.203323
0.111628
0.25027
0.131906
0.106211
0.0856136
0.160042
0.760661
0.937671
0.903864
0.434564
0.194262
0.174237
0.153182
0.161338
0.223123
0.245877
0.255093
0.248259
0.324701
0.117452
0.0876297
0.175691
0.224032
0.213915
0.19617
0.188528
0.222067
0.230693
0.104835
0.0922935
0.223171
0.972366
0.93499
0.908045
0.430635
0.400008
0.373774
0.358643
0.328969
0.345301
0.439248
0.509009
0.238076
0.11277
0.114419
0.0778045
0.177502
0.178771
0.15107
0.468239
0.181189
0.122368
0.10923
0.0976379
0.153998
1.04972
1.01707
0.939703
0.899238
0.864229
0.834963
0.802703
0.783701
0.368779
0.348753
0.734047
0.349257
0.180156
0.162814
0.127795
0.0870262
0.0736558
0.13303
0.119071
0.266096
0.136773
0.223775
0.0900115
0.162782
0.366284
1.33049
1.31194
0.940787
0.896748
0.866775
0.829215
0.810414
0.382757
0.177305
0.159043
0.388743
0.839543
0.395387
0.187655
0.190024
0.166558
0.190691
0.138771
0.18732
0.189201
0.292129
0.391683
0.125909
1.84185
1.72677
1.69381
1.56541
0.939104
0.899867
0.86295
0.83533
0.80324
0.785289
0.385184
0.173113
0.379231
0.744042
0.368411
0.228801
0.142653
0.547254
0.524743
0.50165
0.48179
0.185875
0.28047
0.421796
0.698788
1.54158
1.50738
1.52056
1.43851
0.939455
0.89916
0.863502
0.834702
0.805685
0.782977
0.763208
0.740784
0.732874
0.715459
0.713204
0.352629
0.346031
0.681633
0.682289
0.702297
0.355877
0.191643
0.21772
0.470793
1.05243
1.07321
1.08824
1.09685
1.10142
5.29671
4.43683
3.76182
3.34028
2.62022
2.21603
2.00973
1.84218
1.9803
2.20556
2.59452
3.16323
3.89809
4.84746
6.02121
7.17133
8.20885
9.0725
9.61621
10.1242
10.1151
10.4508
10.0719
9.99758
9.25798
5.26782
4.3901
3.28761
2.47362
1.4578
0.412418
0.151143
0.560653
0.77647
1.30501
2.01869
2.56645
3.35495
4.34386
5.70221
6.89123
7.86323
8.47238
8.74194
8.79194
8.47724
8.89677
8.53117
9.51021
8.76
5.22874
4.3344
3.26723
1.97642
1.43894
1.66007
1.92144
1.87616
1.55466
1.43758
1.78816
2.81925
4.25281
5.73742
6.89022
7.34182
7.45724
7.4379
7.4096
7.40948
7.35761
6.90208
6.51488
5.32473
3.77913
2.78858
1.41657
1.01622
0.807324
1.50201
2.22918
2.61492
0.626069
1.29453
2.1269
2.84505
3.08286
3.28981
3.33807
3.51509
3.60162
3.55021
3.37874
3.55865
5.17635
4.18806
3.08443
1.76409
1.17198
0.631264
0.60461
1.29376
2.50149
3.3588
4.02055
0.779031
0.968505
1.43011
1.88638
2.15861
2.20929
2.61612
2.70172
2.66382
2.64381
2.71343
5.16415
4.10602
3.06077
1.84786
0.483774
1.46896
2.28571
2.64808
1.56581
0.857577
0.894523
0.861674
1.16743
1.34609
1.39502
1.83235
2.47093
2.72885
2.81265
2.96142
2.68865
5.18951
4.1839
3.12073
1.90205
0.59231
0.132304
0.375322
1.08509
1.20402
1.44921
1.78567
2.20386
2.36857
2.63848
2.79612
2.80149
2.98886
3.04103
2.80962
5.22424
4.41394
3.09156
1.95134
1.12101
0.610989
0.545733
0.162137
2.14889
3.67129
3.49655
3.27659
2.71429
2.4687
2.74186
2.80019
2.81885
2.72144
2.68645
2.74877
2.74963
5.25165
4.47654
3.24165
2.06605
1.70193
1.38917
1.79114
3.21523
3.45016
3.77117
3.84706
3.10548
2.63837
2.7036
2.69106
2.6229
2.66286
2.84007
3.04003
2.67765
5.26788
4.47459
3.36277
2.11043
1.75776
1.50257
2.32533
3.14948
1.10008
1.59913
1.57425
0.260484
0.833815
1.2312
1.8501
3.14143
3.41745
3.03096
2.7836
2.78226
2.83413
2.74481
3.00982
2.97027
2.89892
5.28133
4.49961
3.39688
2.13275
1.64422
0.300712
0.661112
0.179702
0.401968
0.910015
1.18698
2.10044
2.81125
2.8834
2.78187
2.75774
2.56804
2.60945
2.77644
2.8592
2.84268
5.29748
4.57102
3.44698
2.18289
1.85068
1.2253
0.440953
0.48511
0.105511
0.307688
0.883577
0.864809
0.655876
0.899251
1.31873
1.69348
1.88738
2.0818
5.31414
4.62864
3.38613
2.2376
1.96243
2.75152
3.30655
2.00929
0.272753
0.984819
1.34269
0.250921
0.25864
0.532287
1.02083
0.0480538
0.214505
0.746587
1.02393
1.31836
1.83139
5.33389
4.60269
3.51127
2.27851
2.04714
3.38688
4.8267
4.35037
2.99554
1.59468
0.937136
0.985992
0.265703
0.466917
0.555794
0.186663
0.968761
1.23724
0.941453
0.916788
0.462079
0.924924
1.46286
5.3281
4.66528
3.43516
2.3025
2.1335
3.89619
5.20672
4.8124
4.02429
3.58659
3.07842
3.2801
0.655798
0.7626
1.25841
1.36152
1.54753
1.62888
1.09506
0.803596
0.35577
0.851977
0.86476
2.48934
5.33261
4.66687
3.25966
2.80948
2.51471
2.58375
3.44399
5.27538
4.97811
4.39083
3.68543
0.38109
0.750656
1.40237
1.05473
1.19036
0.523085
3.88508
4.30377
5.33356
4.53405
4.02379
3.66336
3.42096
3.27578
2.59203
2.61476
3.52408
4.07122
4.48173
1.73261
0.164637
0.0978316
1.59921
0.753635
1.5511
1.72529
2.43482
3.74489
5.26512
5.62675
5.33041
4.53002
4.01574
3.65795
3.39629
2.67462
2.01885
0.66707
0.6822
1.09266
1.13889
1.90543
1.5016
0.272936
0.362427
0.386561
1.1397
1.54713
1.82329
4.15805
4.65714
4.79695
5.16907
5.33934
4.52164
4.04138
3.64027
3.38264
3.23785
2.28358
0.302327
0.499279
0.832962
0.72574
0.987437
0.807304
1.43011
1.36441
1.45031
1.69003
1.59599
2.43451
2.77425
3.16824
3.5865
3.90649
5.34048
4.51822
4.04485
3.66087
3.40853
3.18177
2.93879
2.79762
2.54959
2.30827
1.9568
1.58347
1.47127
1.60705
1.92854
1.85771
2.14282
1.74298
0.538885
1.3434
2.88695
3.43944
3.5913
3.68257
3.81723
6.67134
6.39318
5.97711
5.83463
5.16328
4.75072
4.48311
4.30722
4.29039
4.36446
4.54659
4.85003
5.36877
6.23616
8.04064
10.4603
12.248
13.6371
14.4666
15.1642
15.1772
15.5008
15.4136
14.6033
14.2531
6.67863
6.37092
5.8463
5.37784
3.63152
2.51902
2.12986
2.43553
3.16614
3.72161
4.84954
5.67491
6.61276
7.84927
9.22478
10.5986
11.7239
12.4987
12.9216
13.0427
13.0235
13.0611
13.1806
12.7902
12.6289
6.67521
6.33732
5.89913
5.14301
2.32274
1.32685
1.47834
1.83623
2.24638
2.60887
3.45095
4.35466
5.34652
6.52241
7.98488
9.52554
10.5194
10.9132
10.9882
10.9126
10.7906
10.724
10.216
9.0226
9.16183
6.68374
6.37837
5.90772
5.09621
4.23305
1.20253
1.31379
2.28639
3.10015
4.00338
4.93121
2.01065
1.83401
2.07552
2.71843
3.99828
5.30006
5.4699
5.37915
5.41269
5.22684
5.12751
4.85979
4.62877
4.99552
6.67805
6.24204
5.81428
4.99787
4.09385
0.878427
0.804982
1.78999
3.71763
4.13213
4.61269
3.15789
1.84397
1.85785
1.98552
2.30524
3.37095
3.97943
3.88381
3.77592
3.54688
3.36502
3.33504
3.39569
3.51101
6.66722
6.21113
5.81317
5.04909
2.54664
1.81675
3.45033
3.3741
3.70564
2.81452
2.34093
2.24742
2.57696
3.23032
3.40558
3.43682
3.80471
4.00218
3.69006
3.60118
3.80494
3.6034
6.68462
6.22171
5.85971
4.79301
1.7692
0.348561
1.20427
1.79352
2.36943
3.0519
3.3085
3.14427
3.62258
4.08405
4.07201
3.90842
3.82752
3.94507
3.74388
6.68437
6.33839
5.8183
5.12079
2.57147
1.52568
1.16081
0.185307
2.94458
2.94825
3.05099
3.04784
2.69509
2.58161
3.43931
4.00947
3.83664
3.6842
3.63531
3.67069
3.72243
6.68359
6.37417
5.90251
5.15606
4.65152
4.41548
5.30477
0.271527
2.83888
2.82763
3.35847
3.34211
2.74641
2.57237
3.51641
3.87547
3.70892
3.58848
3.62445
3.84913
3.70718
6.68952
6.3811
5.93875
5.20111
4.71813
4.89464
5.77211
4.90142
2.67092
2.47386
1.45768
0.725835
1.19636
1.66939
3.449
3.91981
3.75228
3.41959
3.81308
3.95791
3.83187
3.72293
3.7758
3.90607
3.82756
6.69206
6.39143
5.95802
5.22954
4.74961
3.30157
3.05593
0.165234
0.141604
0.145466
0.158496
0.290397
0.566679
0.980166
1.63812
2.24493
2.6397
2.71489
2.80485
2.98267
3.19833
3.40478
3.67455
3.84429
3.8915
6.69257
6.40962
5.98751
5.28146
4.96458
5.71861
2.71728
0.981088
0.560324
0.156864
0.108489
0.101165
0.0953084
0.0950388
0.0953532
0.0964405
0.194609
1.39145
1.77257
1.83536
1.63958
1.90108
2.65705
3.23095
3.4536
6.69036
6.42847
6.0089
5.33247
5.11275
6.45912
6.63236
4.46128
2.067
1.42718
0.145861
0.284959
0.99571
1.5354
1.60923
0.719382
0.494789
0.996204
1.47643
0.989221
1.07892
1.34933
2.24064
3.10344
3.32067
6.6885
6.44391
6.02764
5.36977
5.25781
6.59611
7.48108
6.56043
4.95339
3.86558
2.22347
1.72105
1.80918
2.01129
2.4059
2.47076
2.22476
2.04766
1.46056
1.00475
1.11177
1.20132
1.86155
2.95803
3.39805
6.69042
6.44613
6.02908
5.39322
5.43785
6.69284
7.72095
7.12421
6.09697
5.31798
4.60572
4.254
1.63381
2.22365
2.44235
2.47564
2.85057
3.30693
3.30968
2.87325
2.12466
1.93355
3.22339
5.91431
6.09376
6.69649
6.43511
5.96522
5.56841
5.33188
5.27986
6.29194
7.32906
7.14516
6.32598
5.14655
2.55223
1.52774
1.7199
1.98997
2.33369
2.81784
4.16534
4.34578
4.31131
4.56076
5.23109
7.05953
8.35657
8.96113
6.70156
6.43451
6.13144
5.90452
5.6157
5.3482
5.09398
5.42979
5.77894
6.53123
6.82405
3.97398
1.37439
1.89573
2.19041
2.41035
2.74227
3.48358
4.34819
4.78021
5.12104
6.8772
7.81053
8.04789
8.80461
6.70008
6.43438
6.14248
5.86079
5.64157
5.05113
4.53636
1.4955
1.66152
2.24322
2.30541
3.55123
3.76544
3.25004
3.05639
3.23769
3.73806
3.87953
3.16165
3.89299
4.62048
5.56629
6.3164
6.14824
7.24668
6.70674
6.42183
6.16383
5.84432
5.63046
5.37006
4.74864
0.523372
1.09643
1.53574
1.45882
2.23615
2.65119
3.38641
3.72676
3.42464
3.31101
2.57753
2.39803
3.10318
4.3669
4.18621
4.89977
5.25959
5.93999
6.70956
6.41781
6.16655
5.85428
5.624
5.37206
5.15209
4.98903
4.68424
4.12088
3.68659
3.29605
3.08828
3.01981
3.24304
4.05095
4.92612
5.09274
5.3973
5.26597
6.59395
6.88121
6.91948
7.00896
7.04729
6.73683
6.72836
6.63296
6.63378
6.63469
6.60043
6.47299
6.33378
6.24816
6.27256
6.36133
6.51067
6.83889
7.59366
9.24031
12.1073
14.2536
15.9356
16.8072
17.4727
17.1575
17.3364
17.1855
16.9103
16.5112
6.74585
6.71761
6.59505
6.59323
6.52753
5.98835
5.56054
5.73919
5.88451
6.49317
7.44572
8.22159
9.0165
10.0341
11.2627
12.5933
13.7407
14.56
15.0576
15.3644
15.3363
15.4471
15.3015
14.7059
14.3661
6.75146
6.71148
6.62427
6.52083
6.32978
5.03184
4.66143
4.70767
4.66668
5.74275
7.10264
7.54735
8.09598
8.95036
10.1121
11.3448
12.1298
12.4658
12.5539
12.4635
12.3378
12.2665
11.5079
10.0481
10.46
6.75142
6.72291
6.63223
6.50035
6.57764
5.70649
5.1497
5.26552
5.41491
6.04387
6.64453
6.5802
5.33891
4.96691
5.12528
6.13546
6.76139
6.55503
6.38739
6.20885
6.01278
5.86516
5.52896
5.47817
5.79946
6.76872
6.68319
6.62949
6.50497
6.45466
3.64772
2.93618
3.30737
4.82028
4.33215
4.34063
5.15011
4.8225
4.25789
3.97629
4.44291
5.50437
5.81218
5.7032
5.72199
5.62261
5.2385
4.99631
5.0197
4.71873
6.7676
6.68264
6.64095
6.70722
4.78994
1.83854
2.15759
5.81455
2.05336
2.88358
3.61128
3.02537
3.17783
4.24589
4.58053
4.76644
4.95922
5.04373
5.37873
5.73821
5.81103
5.39977
5.19802
5.25628
4.91423
6.76838
6.67156
6.63702
6.57687
3.71242
1.77872
1.99669
2.15455
1.22033
2.54568
3.822
4.01107
3.59459
3.23386
4.36608
5.73558
5.78999
5.52358
5.3672
5.34587
5.04538
6.75275
6.70366
6.61924
6.51991
6.21453
4.15503
4.59022
0.26046
2.52902
2.23119
2.01266
2.11139
2.06848
2.11424
3.6001
5.49963
5.49449
5.24491
5.17381
5.20327
4.9256
6.75005
6.705
6.61363
6.44675
6.32815
6.9433
9.00286
0.265284
2.59034
1.96341
2.32273
2.49521
2.11778
2.13335
3.92485
5.47739
5.38019
5.13564
5.16775
5.26727
4.95812
6.74891
6.70506
6.62339
6.44412
6.35281
7.19137
8.36536
5.06863
3.14989
2.95846
2.05971
0.731101
1.26402
2.5813
4.14152
3.9426
3.39182
3.30318
4.82084
5.54981
5.45418
5.26726
5.29168
5.37417
5.06844
6.74466
6.71091
6.6314
6.44445
6.44764
7.37547
6.57763
2.56472
2.53505
2.76708
2.65921
2.6181
3.52602
4.65211
4.81334
4.4212
4.00126
3.75845
3.79716
3.95797
4.26902
4.69107
5.09789
5.29579
5.08172
6.7392
6.72008
6.63816
6.45475
6.56266
7.8475
7.69262
3.12352
1.97242
1.84025
1.81059
2.10104
3.02744
3.45584
3.30978
3.26594
3.20969
3.18187
3.011
2.91363
2.80283
3.0809
4.07369
4.79798
4.86946
6.73478
6.72923
6.63484
6.46112
6.6397
8.10161
8.82092
6.7617
4.63314
3.30238
2.49025
2.51817
2.87531
2.97949
2.92358
3.09303
3.11834
2.83451
1.84613
2.32197
2.71995
2.95923
3.99091
4.88179
5.00705
6.73262
6.73509
6.62621
6.47382
6.74497
8.08053
8.99964
7.84918
6.75358
6.16705
5.46502
4.60389
4.09926
3.92724
4.13367
4.17847
3.97924
3.74523
3.48237
3.56597
3.36073
3.34733
4.2649
5.36172
5.56299
6.73379
6.73296
6.62403
6.48344
6.98263
7.92334
9.07859
8.06793
7.29459
6.94317
6.59245
5.69747
4.18267
3.9734
3.7851
3.89639
4.92975
5.59856
5.90699
6.16898
5.79849
5.79226
7.14114
8.98456
8.99927
6.74057
6.71937
6.62661
6.49596
6.52068
6.24367
7.65297
8.16023
7.88121
7.74147
7.77301
4.86039
3.50923
3.51634
3.81133
4.16525
5.36694
6.90143
7.99877
8.98394
9.72535
10.3963
11.8114
12.0444
12.3325
6.74923
6.70484
6.64907
6.56507
6.45658
6.3412
6.43631
6.42834
6.46472
7.38186
7.71638
6.53111
6.2281
5.42645
4.332
4.46612
5.88446
5.82752
6.94969
8.56261
9.37747
10.4542
11.0994
11.2776
11.746
6.74966
6.70774
6.6406
6.55953
6.45901
6.31699
6.28841
5.71046
4.70017
4.681
5.25439
5.87164
6.46592
6.48769
6.68825
6.65931
6.8938
6.38355
6.39026
7.43397
7.95785
8.8525
9.95153
10.0243
10.3747
6.74991
6.70679
6.65095
6.54276
6.47157
6.32515
6.22923
5.54333
5.07885
4.34391
3.87364
4.08848
4.73339
5.31218
6.10201
6.25577
6.85964
6.39489
6.47345
8.05905
7.72719
7.96765
8.28445
9.30032
9.51079
6.75081
6.70502
6.65399
6.54596
6.46318
6.34421
6.22709
6.21603
5.97306
5.77127
5.51611
5.40526
5.31642
5.20776
6.01035
6.65168
8.18112
8.73906
9.34162
9.97489
9.53098
9.35654
9.6006
9.71521
9.75877
6.74258
6.73925
6.73399
6.79769
6.83981
6.94882
6.99664
7.04242
7.11441
7.21947
7.2944
7.39373
7.63605
8.31982
9.91798
13.0519
15.4865
17.3113
18.065
18.0818
17.8842
17.8792
17.9925
17.8112
17.6463
6.74976
6.72996
6.73244
6.78762
6.89639
7.12732
7.33868
7.57465
7.64207
8.17994
8.7608
9.4228
10.2426
11.1784
12.3177
13.5978
14.7451
15.5953
16.107
16.3888
16.4857
16.4628
16.1702
15.6874
15.3945
6.75069
6.73424
6.76016
6.77225
7.01928
8.10751
7.92513
7.45585
7.28199
7.99684
8.40506
8.58467
9.0377
9.78307
10.803
11.8699
12.5959
12.9641
13.1154
13.0674
12.9917
12.9547
12.0746
10.6063
11.0847
6.74892
6.74648
6.76132
6.78132
7.02732
8.2118
8.23687
7.60876
7.22395
7.26903
7.4444
7.5779
7.65225
7.25037
7.06213
7.25272
7.29507
6.85534
6.64318
6.39863
6.24761
6.18633
6.07592
5.93772
6.18788
6.75898
6.73245
6.76475
6.82281
7.29484
7.70052
6.62295
6.21726
5.39862
4.49066
4.33083
4.86364
5.92708
6.48569
6.41679
6.61693
6.8738
6.8098
6.69817
6.70161
6.70456
6.61726
6.53723
6.30035
6.06382
6.75861
6.72833
6.77944
6.92708
7.52241
5.66156
4.89343
7.73538
3.00242
3.26326
2.91627
2.40734
3.03133
4.89428
5.99123
5.87573
5.62958
5.78148
6.34189
6.66296
6.72974
6.64034
6.55284
6.50715
6.24756
6.75895
6.72208
6.77195
6.91865
7.17839
5.07234
5.41367
3.21333
0.930344
2.12529
2.82173
3.04092
2.95641
2.96604
4.60005
6.51139
6.73484
6.67199
6.60063
6.52636
6.30188
6.75072
6.73039
6.74792
6.8042
7.04423
7.57725
9.49295
0.296815
1.92661
1.35941
1.67797
1.88531
1.80352
1.95482
3.69718
6.35812
6.6667
6.59985
6.54715
6.48787
6.22934
6.74969
6.72555
6.74014
6.7379
6.8659
8.29304
11.3788
0.268894
2.32746
1.39019
2.2964
2.44344
2.13202
2.20141
4.28036
6.46686
6.6384
6.56961
6.54497
6.51384
6.24908
6.74576
6.72867
6.74093
6.70949
6.82766
8.13996
9.08781
5.13566
3.27418
2.90275
1.90286
0.643703
1.12658
3.06426
3.92778
3.52417
3.01635
3.27823
5.39294
6.53979
6.60049
6.57889
6.57601
6.52017
6.33425
6.73865
6.73891
6.74004
6.70554
6.88831
8.35122
9.54077
7.50171
5.02657
4.38785
3.89954
3.90759
5.42254
6.32264
6.20076
5.53058
5.08483
5.15435
5.43592
5.57761
5.79114
6.13868
6.42451
6.48354
6.27613
6.73184
6.75103
6.72983
6.71093
7.04606
8.74051
9.38374
7.67159
4.64202
3.42146
3.56702
4.83266
5.95469
5.8763
5.64709
5.4676
5.11183
4.77674
4.56377
4.52585
4.58213
4.97146
5.8182
6.22143
6.1543
6.73043
6.75569
6.711
6.71156
7.08646
8.88645
9.52496
8.06938
6.53559
5.73253
5.19981
5.57051
5.56329
5.19219
5.08758
5.36212
5.26355
5.0483
4.76237
4.75066
4.74193
4.95746
5.82771
6.25393
6.23453
6.73126
6.75696
6.69637
6.71487
7.17475
8.82035
9.53144
8.08151
7.27412
7.14413
7.13934
6.9609
6.39714
5.99198
5.98138
6.04084
5.95885
5.79637
5.72948
5.78992
5.64003
5.67417
6.29275
6.42665
6.81235
6.73205
6.75482
6.69413
6.71801
7.46419
8.54282
9.60343
8.25643
7.44308
7.51469
7.63748
7.82942
7.34976
6.30451
5.80767
6.22453
6.97372
7.27703
7.5055
7.85875
8.1222
8.26972
9.15739
10.7666
10.9154
6.73808
6.73734
6.71974
6.69017
6.77733
6.5613
8.05174
8.53216
8.01935
8.14341
8.52771
8.46473
7.48607
6.83331
6.83239
7.29744
8.488
9.60927
10.7197
11.8206
12.7273
13.4505
14.5059
14.4346
14.9308
6.74607
6.7222
6.73319
6.67344
6.65444
6.69467
6.78378
6.58245
6.92261
7.56135
8.2692
8.56305
8.60517
8.53388
8.58615
8.83018
9.07693
9.2818
10.4975
11.1668
12.1774
13.3521
13.8334
14.7576
15.0468
6.74862
6.72518
6.70626
6.70341
6.63998
6.61704
6.64599
6.6285
6.39305
6.57681
7.14621
7.83902
8.31763
8.58501
9.04561
9.23341
9.60218
9.73878
10.0265
10.7448
11.5628
11.8556
12.4906
13.196
13.6673
6.74511
6.73099
6.71175
6.67697
6.67218
6.61263
6.56052
6.62776
6.49489
6.37892
6.30571
6.27999
7.10356
7.67754
8.59643
9.05578
9.70635
9.96653
10.5942
10.9109
11.1832
11.3369
11.6015
12.0978
12.4107
6.74509
6.72956
6.71793
6.67495
6.66077
6.62939
6.58311
6.58663
6.58031
6.56087
6.57665
6.67653
6.93616
7.34971
8.88717
9.60845
10.5938
11.3219
11.675
12.3403
12.24
11.985
12.0103
11.8868
12.1282
6.7502
6.72515
6.74407
6.79625
6.85188
6.97882
7.07767
7.2107
7.38556
7.57126
7.68806
7.78093
8.05301
8.78522
10.4887
13.7214
16.3027
18.1795
18.8725
18.7321
18.479
18.4051
18.496
18.3195
18.2103
6.75137
6.72645
6.7435
6.79977
6.88858
7.15126
7.49024
7.9969
8.28198
8.80336
9.3297
10.0163
10.8926
11.8558
12.9717
14.1942
15.3005
16.1421
16.6285
16.9082
16.9498
17.1269
16.7994
16.1265
16.0225
6.7504
6.73127
6.7646
6.77597
6.94134
8.07045
8.48871
8.30883
8.28211
8.59636
8.69137
8.90638
9.43751
10.1655
11.1091
12.0601
12.7112
13.0875
13.2748
13.2698
13.2438
13.2461
12.3298
10.8889
11.4133
6.74862
6.7403
6.77274
6.80477
6.99576
8.15112
8.62201
8.12067
7.80729
7.77212
7.81729
7.80635
7.81356
7.68152
7.50873
7.38809
7.18236
6.88472
6.70451
6.48776
6.28465
6.25704
5.99814
6.11697
6.40327
6.75087
6.7431
6.76238
6.82433
7.1251
8.25972
8.62823
8.32581
5.64901
4.61143
4.54178
5.25432
6.30762
7.2925
7.54368
7.44006
7.26643
7.09035
6.97898
6.93974
6.9348
6.94012
6.92687
6.79631
6.65139
6.7534
6.7361
6.77764
6.86887
7.31504
8.13225
7.58723
6.87445
1.83238
2.10852
2.17445
2.38887
3.22378
4.99301
6.09131
6.07096
5.93742
6.19905
6.68977
6.88914
6.92549
6.9408
6.9452
6.99205
6.91546
6.75198
6.73409
6.76351
6.85899
7.21003
7.93149
7.68491
4.15621
0.655132
1.40037
2.36748
2.75373
2.88911
3.36553
5.26932
6.75454
6.93072
6.9513
6.94626
6.98989
6.9313
6.75051
6.72793
6.75238
6.80945
7.02207
8.45871
11.3616
0.406932
1.49431
2.00667
3.84196
3.52451
2.82745
2.79994
4.67588
6.68111
6.93092
6.94763
6.94243
6.99483
6.91522
6.7496
6.72362
6.75038
6.7617
6.9451
8.83578
11.491
0.228325
0.989662
3.16949
4.45632
3.82806
3.09333
3.19041
5.23576
6.76251
6.93152
6.94674
6.94835
7.01244
6.92643
6.74383
6.72968
6.7521
6.73543
6.91925
8.62393
10.1169
5.26181
3.25506
2.70304
1.73472
0.614965
1.61734
3.83023
4.28717
3.84213
3.49938
4.11571
6.04402
6.83901
6.91298
6.94379
6.95484
7.01856
6.9577
6.73531
6.74246
6.7492
6.73071
6.97337
8.79237
9.69909
8.82018
6.06972
5.04949
4.52676
4.8406
6.38188
6.96547
6.69294
6.07449
5.84188
6.18554
6.54651
6.61999
6.6793
6.80798
6.92592
7.0063
6.95796
6.7284
6.75624
6.73269
6.74166
7.15428
9.05661
9.5577
8.35444
7.24361
6.26113
6.19622
6.94031
7.48178
7.46325
7.27954
7.01463
6.69611
6.44276
6.28913
6.22645
6.25421
6.47223
6.79425
6.9595
6.94343
6.72884
6.75981
6.7088
6.74527
7.22122
9.20763
9.6765
8.13803
7.35364
7.07423
7.06839
7.29249
7.36619
7.07213
6.96533
6.95254
6.81107
6.60839
6.4591
6.39652
6.36057
6.50026
6.83996
6.9199
6.86027
6.73164
6.75881
6.68893
6.74651
7.33719
9.13352
9.72074
8.12763
7.23137
7.34395
7.50171
7.63246
7.58707
7.36396
7.26756
7.18073
7.08156
6.97831
6.91982
6.93479
6.91022
6.93375
7.01093
6.78202
7.28763
6.73242
6.75593
6.68927
6.74768
7.62414
8.82006
9.80792
8.32859
7.43405
7.51312
7.70522
7.96718
8.3438
8.10198
7.79421
7.82212
7.83796
7.86319
8.08044
8.4513
8.87502
9.15302
10.1202
11.9698
12.2189
6.73643
6.73985
6.72514
6.71581
6.84237
6.69149
8.30456
8.75374
8.18592
8.24494
8.81173
9.28526
9.95542
9.71837
9.6714
10.0641
10.785
11.6203
12.5803
13.5925
14.5037
15.2634
16.2341
16.7321
16.5679
6.74475
6.72093
6.75075
6.67375
6.70099
6.79021
6.89693
6.72675
7.05577
7.79046
8.58598
9.14766
9.69282
9.96972
10.4788
11.2861
11.7101
12.1214
12.9752
13.9245
14.755
15.7803
16.3178
16.9707
17.3629
6.74985
6.72148
6.7159
6.72361
6.66478
6.69473
6.73971
6.7642
6.73264
6.95242
7.84393
8.61269
9.22313
9.69821
10.384
10.9561
11.5676
11.9372
12.508
13.7851
14.9091
15.0756
15.4175
16.092
16.3955
6.74345
6.73345
6.71365
6.69556
6.71085
6.6662
6.64979
6.76357
6.78565
6.82869
7.03235
7.29777
8.4561
9.16103
10.1632
10.9026
11.6942
12.1748
12.6391
13.218
13.8557
14.0307
14.2803
14.5883
14.8832
6.74301
6.73198
6.72191
6.69137
6.69212
6.70094
6.65798
6.66858
6.77868
6.81691
6.93727
7.22176
7.66791
9.06062
10.7124
11.6497
12.4274
13.367
13.4823
14.2337
14.5123
14.2994
14.4474
14.0976
14.2223
6.75574
6.71641
6.74157
6.79146
6.79571
6.93194
7.05023
7.22651
7.4581
7.68659
7.82714
7.97941
8.32249
9.12277
10.905
14.1414
16.788
18.6568
19.2481
19.0621
18.8143
18.7144
18.9172
18.5866
18.5287
6.75115
6.72662
6.73217
6.77977
6.86624
7.07025
7.33745
8.04786
8.50156
9.1679
9.75649
10.4524
11.3482
12.3406
13.4595
14.629
15.6711
16.4608
16.9209
17.1677
17.2838
17.3774
17.1559
16.4389
16.3575
6.75032
6.72815
6.76061
6.75725
6.89231
7.93098
8.44135
8.37734
8.46407
8.80191
8.88218
9.14495
9.73486
10.5011
11.4271
12.2647
12.8133
13.157
13.3364
13.3652
13.3738
13.3948
12.4697
11.0583
11.6497
6.74964
6.73332
6.76854
6.76997
6.92962
8.02882
8.54176
8.01819
7.7192
7.79156
7.97308
8.05757
7.88899
7.68921
7.50625
7.35399
7.14291
6.91871
6.75536
6.53931
6.38711
6.35255
6.08687
6.11798
6.66013
6.74982
6.73705
6.76803
6.79953
6.9795
8.03381
8.71263
8.80013
6.99136
5.74177
5.80489
6.39289
7.09776
7.64141
7.76052
7.59888
7.3838
7.20653
7.10366
7.05765
7.04069
7.04627
7.06596
7.01818
6.92758
6.75098
6.73501
6.76152
6.81824
7.04187
8.02717
9.39093
6.54096
3.3087
2.96228
3.09504
3.46784
4.57315
6.16797
6.77752
6.67621
6.57369
6.72341
6.94175
7.01533
7.02563
7.04045
7.0705
7.15854
7.17825
6.7512
6.72979
6.75616
6.81379
7.01172
8.01878
8.29324
6.47083
2.91304
3.23469
2.8586
2.41717
2.76079
5.03251
5.40241
4.93323
4.60401
5.03224
6.32814
6.95557
7.02691
7.04151
7.06826
7.17061
7.18147
6.75146
6.72321
6.75012
6.78697
6.95455
8.26419
10.7452
5.12508
3.27579
3.46992
2.91742
2.35382
2.87532
5.57198
6.35386
5.42628
4.58498
4.67288
6.0817
6.92776
7.03013
7.04441
7.06911
7.17565
7.1808
6.74932
6.72178
6.74994
6.7495
6.92917
8.56333
10.4283
3.86814
3.28487
3.12361
2.58659
2.0923
3.46005
6.23184
6.54426
5.54306
4.74465
4.99765
6.32907
6.95532
7.03253
7.05204
7.0737
7.18058
7.19023
6.74231
6.72997
6.75276
6.7304
6.93008
8.70378
10.4701
5.65696
3.73813
3.1049
2.72885
2.9833
4.81709
6.26681
6.12061
5.41793
5.0672
5.66742
6.68452
6.99722
7.03249
7.05619
7.079
7.18794
7.20769
6.73342
6.74382
6.74891
6.72761
6.98482
8.85322
9.57944
8.81805
7.11669
5.92454
5.47393
6.20975
7.23087
7.58684
7.31024
6.80814
6.63
6.82132
6.97624
6.99558
6.99884
7.04147
7.08359
7.2083
7.22954
6.7271
6.75793
6.7297
6.74353
7.19143
9.12539
9.54384
8.17491
7.65361
7.58056
7.56567
7.7692
7.92246
7.9163
7.77833
7.50816
7.25634
7.09742
7.00909
6.95449
6.94179
6.99927
7.09918
7.23181
7.2768
6.72909
6.76021
6.705
6.74853
7.28818
9.33696
9.7559
8.1261
7.34243
7.4647
7.59423
7.7092
7.76658
7.73758
7.62725
7.4646
7.2982
7.16416
7.07757
7.02083
6.9994
7.0396
7.15333
7.1771
7.11404
6.73364
6.75696
6.68079
6.75184
7.42097
9.30588
9.8442
8.22855
7.28502
7.38079
7.56196
7.68673
7.78424
7.7459
7.66379
7.53188
7.41383
7.32122
7.2664
7.25738
7.26512
7.2684
7.13404
7.26476
7.58552
6.73445
6.75363
6.68529
6.75143
7.72795
9.02313
9.94649
8.42425
7.53295
7.58182
7.72164
7.88352
8.14602
8.38252
8.4144
8.32875
8.19092
8.22249
8.46504
8.86019
9.3207
9.65458
10.8034
12.9494
13.1761
6.73506
6.74268
6.72118
6.723
6.89355
6.75707
8.59389
9.00187
8.38427
8.44486
8.97901
9.40237
10.2863
10.811
11.0969
11.508
12.1503
12.9662
13.8806
14.828
15.697
16.4219
17.7377
17.3788
17.976
6.74167
6.72508
6.75388
6.66391
6.71912
6.83956
6.93798
6.77885
7.23458
8.15191
8.89117
9.39167
10.0408
10.5343
11.3987
12.4958
13.1693
13.9113
14.7503
15.6448
16.4814
17.5095
18.0483
18.6348
18.9007
6.75077
6.71881
6.71959
6.72845
6.65904
6.71538
6.76784
6.80054
6.77885
7.09086
8.02631
8.85551
9.45208
10.0904
10.9211
11.7676
12.5569
13.3493
14.3974
15.7906
16.8086
17.0474
17.4107
17.9381
18.4112
6.74312
6.73393
6.71176
6.69825
6.7205
6.66501
6.6762
6.79754
6.84944
6.92823
7.1689
7.49542
8.74414
9.68805
10.8054
11.8001
12.7147
13.4297
13.9898
14.8639
15.8376
16.2418
16.3472
16.5564
16.752
6.74194
6.73348
6.7208
6.69192
6.69646
6.72072
6.65424
6.69884
6.82826
6.8809
7.06426
7.42715
7.99507
9.89281
11.4769
12.6489
13.4549
14.4532
14.7538
15.4354
15.5913
16.0729
16.0074
15.9509
15.8801
6.75901
6.71049
6.74405
6.7806
6.76941
6.90423
7.04248
7.23569
7.45955
7.67366
7.84375
8.06034
8.46477
9.25141
10.8116
14.0328
16.8241
18.6849
19.0604
18.9148
18.7744
18.7098
18.5365
18.7147
18.6064
6.75103
6.72536
6.72897
6.77388
6.83669
7.04749
7.32836
8.18591
8.7283
9.44613
10.104
10.8356
11.7229
12.7067
13.7997
14.9122
15.89
16.5984
17.0423
17.2153
17.5206
17.6492
17.265
16.2279
16.7383
6.74983
6.72637
6.7577
6.74578
6.8792
7.99367
8.59504
8.6911
8.84894
9.21922
9.36309
9.63227
10.1858
10.9285
11.821
12.5486
12.9959
13.2714
13.4188
13.4742
13.5066
13.5267
12.5972
11.215
11.8518
6.75019
6.72883
6.76386
6.75271
6.89774
8.10797
8.68744
8.22962
7.86314
7.96145
8.11782
8.21761
8.08041
7.90089
7.72797
7.58156
7.35946
7.12027
7.02718
6.7286
6.61022
6.58577
6.40528
6.39847
7.02075
6.75105
6.7296
6.76436
6.765
6.91293
8.02669
8.68843
8.63004
8.44081
7.90747
7.79396
7.86493
7.94307
7.94446
7.86261
7.70476
7.51383
7.35665
7.26641
7.22405
7.20234
7.19631
7.22142
7.1526
7.11698
6.752
6.72762
6.75996
6.78077
6.93251
7.9364
9.02858
9.31291
5.98831
5.17713
5.39412
6.12883
7.09617
7.72714
7.73058
7.47625
7.25873
7.18479
7.18853
7.18997
7.18222
7.17903
7.20743
7.25788
7.27579
6.75214
6.72375
6.75247
6.78147
6.92848
7.9574
9.87211
9.19548
5.90081
4.86014
4.53919
4.70058
6.31871
7.71219
7.56119
6.96968
6.57164
6.68459
7.04442
7.17934
7.18589
7.18112
7.20594
7.2541
7.27269
6.75163
6.72005
6.74748
6.7612
6.91828
8.22537
10.8888
10.2529
6.19113
5.13543
4.61144
4.48045
6.69695
8.13015
8.049
7.1334
6.48623
6.52255
6.97954
7.17176
7.18742
7.18369
7.20785
7.25496
7.27276
6.748
6.72152
6.75015
6.73951
6.91295
8.55894
10.6148
7.38333
5.41005
4.61902
4.21389
4.415
6.93722
8.33177
8.13915
7.17779
6.56271
6.63802
7.02827
7.17426
7.18746
7.18596
7.21136
7.25934
7.27916
6.74024
6.7313
6.75302
6.7248
6.93276
8.78452
10.1066
8.82795
5.87254
4.94546
4.93109
6.23336
7.41867
8.11676
7.78552
7.13162
6.76732
6.89301
7.1208
7.18569
7.1889
7.19074