/*--------------------------------*- C++ -*----------------------------------*\
  =========                 |
  \\      /  F ield         | OpenFOAM: The Open Source CFD Toolbox
   \\    /   O peration     | Website:  https://openfoam.org
    \\  /    A nd           | Version:  6
     \\/     M anipulation  |
\*---------------------------------------------------------------------------*/
FoamFile
{
    version     2.0;
    format      ascii;
    class       volScalarField;
    location    "35";
    object      p;
}
// * * * * * * * * * * * * * * * * * * * * * * * * * * * * * * * * * * * * * //

dimensions      [0 2 -2 0 0 0 0];

internalField   nonuniform List<scalar> 
230684
(
80.7559
80.1918
78.9363
76.294
69.0757
56.7148
49.9874
52.9755
54.0465
51.984
47.6255
41.8657
36.5628
32.8514
29.9755
26.2492
21.739
17.2862
13.356
9.94611
6.9437
4.28585
2.14698
0.317182
-0.00857745
82.2932
82.1711
81.4666
81.9237
73.1533
54.0695
39.2833
55.8412
56.3167
53.9949
49.4538
42.0371
35.8115
32.2244
30.4257
27.1986
22.9952
18.7208
14.6919
11.0114
7.68083
4.63702
2.08689
-0.0259984
-0.177673
84.6653
84.9547
85.5196
90.9194
108.883
32.2935
37.7454
50.4845
57.1748
55.6842
53.0068
39.1233
30.8996
27.87
30.6102
28.7114
24.8709
20.4769
15.4226
11.0687
7.73358
4.34319
0.824083
0.013143
-0.0665352
87.3353
87.1469
89.3212
83.0745
101.352
26.1645
36.6137
52.3819
53.9761
56.1819
72.6402
-2.21493
7.44243
21.3251
28.4085
31.5191
26.2907
20.7268
15.1447
9.97141
7.07803
4.06222
0.872644
0.0801133
-0.108938
90.2163
91.0367
93.3824
95.9716
86.7486
43.2203
44.2456
40.9
42.0871
46.2546
71.6302
-46.1806
4.28001
16.7527
27.2001
32.2131
27.2058
21.0348
14.8452
10.0891
6.87877
4.05606
1.45735
-0.162468
-0.23925
92.5652
93.9682
98.2691
109.139
117.767
58.2316
64.4975
37.5674
16.0676
31.7372
41.8764
18.3407
17.1578
29.4724
24.1022
29.7336
26.4577
20.9934
15.0042
9.55134
7.16558
4.06272
1.22377
-0.151184
-0.187117
93.2514
94.4414
99.6098
114.277
127.539
87.4317
91.3572
84.363
27.925
40.0782
50.2113
25.1502
29.6791
27.6507
29.8843
28.8916
25.6451
20.9783
15.0217
10.6702
7.14808
3.34638
0.490962
-0.207024
-0.274406
92.5334
93.1317
96.4082
103.471
104.874
109.703
121.995
79.0387
25.3516
37.0643
56.1876
26.2022
33.9245
31.1
33.1587
33.2004
28.6066
22.2337
15.9428
10.8973
6.58047
2.9382
0.525363
-0.3629
-0.336601
91.3469
91.6733
93.8275
97.9806
102.192
109.31
120.739
-32.378
21.0527
29.0605
44.2166
37.6819
14.0337
20.42
30.9612
37.7612
31.244
22.6789
15.4019
10.3951
6.20124
2.7445
0.421097
-0.404993
-0.315814
90.0137
90.2345
91.9514
95.5406
99.813
103.419
103.358
50.1796
11.6239
24.2768
28.8785
34.3539
20.3665
24.6771
24.9435
30.131
26.7949
20.5248
14.4049
9.301
5.11097
2.17056
-0.231231
-0.723113
-0.454276
88.5543
88.685
90.2723
94.6291
108.354
97.3857
113.033
42.5367
37.3297
48.2536
32.6933
34.7957
24.1863
25.0408
26.9967
25.2034
22.3574
19.6345
14.1329
7.19005
3.01212
0.560114
-1.36165
-1.14263
-0.739268
87.0188
86.9739
88.0127
90.6466
94.2266
102.933
78.232
92.2959
37.031
66.8332
34.5884
37.0014
30.1531
31.794
33.0725
26.4874
21.1456
23.7326
16.7229
5.60382
-0.638447
0.14336
-1.16713
-0.753091
-0.405808
85.6365
85.4561
85.9336
86.9087
87.4427
85.8149
81.194
90.6616
61.6126
64.3101
54.5133
18.7673
26.1343
47.9933
33.9321
44.9872
20.4168
24.1211
24.8466
-0.911122
-0.991723
-1.2327
-1.85626
-1.02232
0.161596
84.5381
84.2835
84.4238
84.5984
84.077
82.1995
78.464
73.3492
69.3522
66.6674
65.0686
44.8972
18.1476
34.2668
24.9827
9.617
23.1616
29.5868
34.7317
-5.33201
-8.35148
-8.2165
0.250994
0.182075
0.0340855
83.6922
83.4014
83.3846
83.2473
82.7519
81.6616
79.505
75.895
73.9183
75.2616
88.2106
100.543
-2.71876
19.2613
23.0959
27.2195
22.929
24.3811
14.2862
-3.51047
-4.19347
-5.08944
1.46565
0.948509
1.05661
83.0117
82.7026
82.5648
82.129
81.7776
81.5337
81.3649
79.8633
78.9044
81.8556
95.2152
107.678
6.36067
29.8711
38.473
19.8362
24.1499
27.3403
21.8098
-5.63557
-2.85417
-2.80739
-5.83269
1.36378
0.139379
82.4778
82.161
81.8365
81.6394
81.5707
81.6373
80.8918
76.1186
74.4747
78.199
83.4204
97.4414
5.65975
29.4389
29.0463
24.9674
29.2326
30.3448
5.82303
-3.31332
-1.95853
1.99274
0.745916
1.78586
0.872275
82.0681
81.773
81.5633
81.5364
81.9102
82.9628
84.4108
69.0354
72.9473
70.8044
69.0416
59.9606
33.7023
33.3891
44.7092
29.2208
16.5199
57.9775
-50.2416
-20.6772
-2.50294
6.50196
4.14395
2.421
1.46541
81.7568
81.4525
81.2019
81.0193
80.9581
81.1625
83.7794
61.5317
73.141
71.7576
72.5941
79.1597
25.8544
54.1121
40.0963
38.3298
46.8555
68.7342
-51.8802
-20.0168
6.4201
4.81386
4.02895
2.57497
1.94059
81.5766
81.2589
80.9413
80.5788
80.0598
79.2214
77.8755
73.1201
69.7453
66.7313
62.0874
56.2234
46.2229
45.2697
40.58
35.0711
32.6568
23.4818
-10.1981
-3.74046
5.06431
4.79996
3.41038
2.17553
1.61876
80.4857
79.9735
78.5531
75.3883
68.8502
57.6063
51.151
53.5425
54.0646
51.7597
47.3294
41.6073
36.4272
32.7176
29.7135
25.8155
21.192
16.7248
12.8555
9.5427
6.64174
4.04133
2.00606
0.341582
-0.0609777
81.91
81.7866
81.007
80.7926
73.3986
56.0391
20.523
55.5781
56.4119
53.5476
48.7341
41.5092
35.6164
32.2901
30.338
26.8858
22.5855
18.3429
14.395
10.797
7.52828
4.50886
2.0165
0.0764384
-0.00602303
84.1428
84.3924
84.7497
89.0471
115.735
49.1772
57.1094
55.0412
51.4411
38.7387
31.0585
27.6842
30.1227
28.2693
24.6635
20.0891
15.1593
10.8381
7.3122
3.96635
0.53558
0.262183
0.184368
86.7159
86.514
88.9027
86.3923
102.596
52.1934
52.7212
53.5958
69.2687
8.52064
29.7775
29.5133
25.3186
19.9131
14.4209
9.91974
6.7943
3.68431
0.538529
0.193113
0.0350763
89.4571
90.2821
92.0706
93.8364
84.5083
41.1465
44.6072
46.7246
42.765
42.6286
61.4507
23.8646
29.702
26.0331
20.0911
14.4127
9.87284
6.57048
3.72409
1.06276
0.0434161
-0.0225842
91.7103
93.152
96.8932
106.795
124.825
1.10211
19.6287
35.2962
19.7378
20.152
28.327
29.1393
25.9828
20.4352
14.5823
10.0942
6.82198
3.60332
0.861115
-0.0208383
-0.050695
92.4865
93.7758
98.3403
111.854
141.599
61.32
27.0649
29.1198
30.423
28.8121
25.6269
20.5835
15.0651
10.549
6.54284
3.04883
0.271213
-0.0998778
-0.157779
91.9642
92.7161
95.7804
102.244
103.267
109.209
123.018
135.145
20.7321
18.9399
24.3963
28.4313
25.956
20.7283
15.2981
10.3994
6.1664
2.72558
0.239236
-0.221267
-0.201451
90.9114
91.3859
93.4938
97.402
101.542
108.761
122.056
8.50803
10.952
25.8969
32.7543
27.9861
21.0024
14.8534
10.0128
5.88975
2.65318
0.158901
-0.318604
-0.206051
89.6471
89.9876
91.6661
95.0038
98.9121
102.269
100.219
31.1703
8.1384
27.8108
29.6961
26.7426
14.6205
26.9719
26.3998
29.3353
25.1791
19.3791
13.837
8.84175
4.83124
1.94982
-0.459801
-0.574633
-0.315364
88.24
88.4662
89.9524
93.7172
104.267
98.4139
114.86
26.5743
22.1523
24.5153
25.459
23.4063
20.3607
18.7997
13.2153
6.84385
3.01764
0.60174
-1.3895
-0.776898
-0.440356
86.7699
86.8117
87.7824
90.1259
92.7827
95.4693
83.1679
86.2591
37.5961
6.84796
22.2663
18.8222
6.61009
-0.262722
-0.215182
-1.98555
-0.68375
-0.322837
85.4471
85.344
85.7936
86.7052
86.9678
84.8921
79.3726
96.8345
18.6661
28.6307
48.4562
32.7821
40.0993
15.5044
23.87
-4.94339
-1.87155
-1.37648
-1.77075
-0.920381
0.0367789
84.3859
84.2122
84.3396
84.5201
83.9631
82.0959
77.7168
72.8183
68.9479
66.5725
61.6248
43.6115
16.6379
33.7459
28.0021
6.65819
23.803
27.324
54.6539
-5.43365
-1.38603
-0.383808
0.388728
83.5532
83.3537
83.3308
83.2367
82.7508
81.7356
78.6584
75.5043
73.3221
73.6959
83.2641
125.323
18.6349
26.9925
26.7913
22.9618
22.4814
15.2736
-1.95949
-4.38666
-2.7548
0.694892
0.322597
0.874619
82.8811
82.663
82.5156
82.0973
81.7188
81.8075
81.9856
79.7462
78.0055
79.5073
90.0006
136.181
25.2817
38.2445
25.7495
24.8854
-6.33071
1.50029
0.406941
82.3466
82.1222
81.8183
81.6174
81.5442
81.5828
81.0536
76.1727
73.9841
76.4197
78.6656
100.05
29.9844
11.776
31.9709
-2.7718
-6.22146
-1.33752
1.48846
1.01913
1.35579
0.611163
81.9348
81.7294
81.5264
81.4535
81.7135
82.6201
84.2813
68.4313
74.6349
70.2468
67.9635
60.3361
35.1652
25.665
44.4561
9.03918
84.5797
-25.6272
-2.66847
6.00554
3.63366
1.78941
0.923981
81.6268
81.413
81.1756
80.9572
80.8002
80.8033
83.5148
49.3957
75.8732
70.7401
70.928
84.8398
51.7248
39.1096
36.2293
43.368
92.8432
-22.4138
6.81061
5.33698
3.62182
1.89327
1.14421
81.4519
81.2247
80.9306
80.5545
80.0173
79.1277
77.6323
73.0311
69.8026
66.6091
61.6866
56.2512
47.4135
45.1139
40.3204
33.9392
30.5657
23.0237
-2.61857
-3.26851
4.55491
4.5619
3.05271
1.73436
1.27697
80.0788
79.535
77.8337
74.1874
68.2561
58.9307
53.7137
54.2048
54.011
51.457
47.045
41.6562
36.7205
32.9672
29.7056
25.5206
20.7854
16.3639
12.5795
9.3326
6.47
3.86362
1.84706
0.327425
-0.109103
81.3602
81.1126
80.0433
78.1105
68.5608
56.1697
48.8811
53.514
55.4226
52.8006
48.1625
41.8165
36.3843
32.8525
30.3805
26.6098
22.189
17.9335
14.0193
10.435
7.15531
4.11637
1.68067
-0.197525
-0.0244887
83.4227
83.443
83.1924
84.0602
77.4119
39.2335
49.3684
51.3726
55.162
52.8565
49.1238
39.2235
32.5651
29.6438
29.7689
27.6529
23.8603
19.364
14.7648
10.4798
6.84073
3.57292
0.0768118
-0.00167103
0.173098
85.8757
86.1612
86.2771
85.7663
82.9255
33.6213
45.6361
51.0604
50.6577
50.1677
52.9291
21.8287
25.9384
22.8255
28.3345
27.8379
24.2201
19.1358
14.199
9.9263
6.56487
3.41109
0.0525905
0.0197373
0.0296744
88.4475
89.0135
89.8986
90.2418
80.2897
50.3365
51.6443
48.6
36.8213
35.4577
45.7192
20.6406
21.4856
25.7456
26.2221
27.3073
24.595
19.234
14.1481
9.92673
6.44617
3.41705
0.399619
0.00392968
-0.0111445
90.6139
91.7238
94.3749
100.414
105.338
-14.2619
4.37746
26.1838
23.887
21.4753
27.1821
26.309
27.2953
24.5327
19.4173
14.4404
10.0996
6.47244
3.25959
0.320446
-0.101227
-0.0817406
91.5029
92.5705
96.0282
104.619
108.48
72.8629
14.3594
26.4056
30.5628
28.8783
24.7842
19.8996
14.9852
10.3883
6.29873
2.90338
-0.0227464
-0.192468
-0.15904
91.2105
91.9126
94.4938
99.3511
100.033
106.483
121.6
134.82
4.8889
14.2541
30.2965
31.2367
26.0968
20.6243
15.4263
10.2967
6.03802
2.68157
-0.0699946
-0.221324
-0.17369
90.3324
90.8097
92.7108
96.0685
99.9076
106.981
121.117
12.5845
6.49961
20.4666
33.052
32.3169
26.4372
20.4128
14.9368
9.82938
5.7722
2.54967
-0.176022
-0.341096
-0.200194
89.1715
89.5096
91.0191
93.8088
96.8767
99.1606
92.8248
22.1544
19.5448
34.1432
30.2651
21.2676
11.2861
25.329
28.862
28.0951
23.4921
18.6924
13.6865
8.70425
4.81999
1.86347
-0.709871
-0.58746
-0.309161
87.8486
88.0626
89.3086
91.9499
94.7642
94.0434
95.7338
33.2763
43.6867
39.2462
34.6457
23.9408
24.8747
26.0126
25.697
23.4294
20.057
17.8878
12.5661
6.96776
3.32415
0.841626
-1.41487
-0.744718
-0.402646
86.4717
86.5231
87.3179
89.0035
90.009
87.464
79.2126
66.8619
46.7704
40.3439
31.5212
24.9241
35.3334
35.1392
29.9399
23.9542
4.07455
19.0609
11.7941
4.11626
1.49743
-0.139735
-1.9524
-0.755869
-0.378539
85.2376
85.1638
85.5222
86.1753
85.9505
82.8301
77.1128
69.509
62.5665
75.5491
33.042
26.8913
36.0707
40.1436
32.7531
28.0225
19.7783
25.3885
4.50216
-1.23158
-0.425032
-1.24281
-2.09667
-0.902813
-0.23595
84.2404
84.1145
84.2014
84.2837
83.5982
80.9696
76.932
72.2721
68.5439
65.5099
58.031
42.4317
29.312
32.9425
29.4426
23.6869
22.1548
21.762
13.2865
-0.591387
0.168756
-2.51938
-1.83422
-0.53252
0.0186977
83.4438
83.3055
83.2809
83.1467
82.6241
80.9174
78.3857
75.8294
73.0014
71.3324
72.0134
53.4734
7.87315
26.1226
29.8114
26.0939
22.17
19.375
12.2191
2.09501
-0.601477
-2.83787
-2.325
-0.117864
0.227062
82.7924
82.6369
82.4891
81.9961
81.6083
82.3638
82.9375
80.2128
77.3756
76.1861
75.9867
51.3829
9.57859
29.7853
34.9589
26.3948
20.61
19.581
9.10545
-0.143696
-0.713485
-1.9515
-1.7887
0.305493
0.0799072
82.2645
82.0972
81.797
81.5689
81.4675
81.3774
80.9698
76.7773
73.8899
72.028
72.0487
59.6544
15.0384
32.4557
36.8675
25.3006
20.5665
21.7658
-1.04502
-2.75664
0.203506
1.41634
0.887865
0.752607
0.278905
81.848
81.6979
81.4818
81.3184
81.3237
81.7563
82.123
70.55
73.805
69.1324
65.2168
56.4974
40.6087
40.5789
36.62
29.1462
28.222
33.361
-20.1855
-8.79395
1.68961
3.68591
2.22655
1.10171
0.419571
81.5405
81.3827
81.1346
80.8426
80.5037
79.9801
80.483
58.0484
73.9276
69.24
67.2019
56.9703
44.1218
45.615
38.5713
33.2923
33.0077
24.8033
-25.9089
-7.03405
3.96279
3.61579
1.9896
0.870339
0.538404
81.37
81.1989
80.9006
80.4819
79.8663
78.8273
77.065
72.9835
69.7536
66.39
61.3996
54.941
48.0527
44.1833
39.1938
32.3463
27.6166
15.4856
-2.82951
-0.152575
4.88265
3.92639
2.17206
0.915154
0.867121
79.5798
78.9738
77.062
73.2299
66.5303
59.1101
55.4169
54.9978
54.098
51.2766
46.8971
41.8496
37.088
33.2115
29.5984
25.1363
20.3283
15.9563
12.2451
9.05495
6.18926
3.5857
1.609
0.209345
-0.172497
80.7163
80.3087
78.9571
76.0102
68.2248
58.1499
54.274
54.6176
54.7962
52.1855
47.8148
42.3573
37.198
33.3774
30.2477
26.1444
21.639
17.4189
13.5714
10.038
6.75749
3.71459
1.33744
-0.429121
-0.0305932
82.5925
82.3588
81.4664
79.8742
71.4156
54.1567
52.9311
53.2844
53.6489
51.2336
47.061
39.7436
34.0526
30.9513
29.4891
26.7607
22.9555
18.6993
14.3814
10.2274
6.50065
3.21767
-0.242223
-0.207202
0.176298
84.8801
84.8176
84.2381
82.5253
75.0596
54.851
52.1767
51.7602
48.9942
46.9899
45.1954
33.6462
29.4548
27.8396
28.2459
26.8323
23.1721
18.5881
13.9836
9.88022
6.38485
3.15885
-0.306477
-0.117238
0.0396144
87.2884
87.501
87.5472
86.4838
77.4157
59.2791
56.6693
49.8262
34.4119
31.627
37.3031
30.3782
26.426
27.2694
27.0297
26.2828
23.3265
18.6319
13.9558
9.96399
6.36148
3.15732
-0.0870853
-0.124854
-0.0463704
89.3529
89.9779
91.3313
93.1557
83.9212
60.4257
73.2109
40.576
-6.28623
5.48989
24.7638
26.7977
24.2289
27.2946
27.395
26.3329
23.1592
18.6998
14.2053
10.1039
6.36854
2.98973
-0.0838417
-0.2117
-0.120932
90.353
91.0371
93.1343
96.6288
87.9994
86.1642
103.81
110.718
14.0398
27.1531
30.619
28.1668
23.625
19.1381
14.9192
10.4792
6.27379
2.82627
-0.253757
-0.287038
-0.176175
90.3012
90.8159
92.6886
95.8435
96.6273
103.787
122.066
139.645
1.93455
24.6766
36.5228
31.9259
25.2089
20.1146
15.7668
10.5288
6.09631
2.70365
-0.299623
-0.303152
-0.192435
89.6208
89.9897
91.5168
94.2122
97.4654
103.884
118.283
8.34682
8.1239
28.4763
36.2443
31.1654
24.8104
19.8069
15.2111
10.0156
5.79442
2.47921
-0.424158
-0.409137
-0.225713
88.5929
88.8354
90.0482
92.2089
94.3043
94.9639
85.6898
25.9382
24.7618
31.3999
30.3701
18.8433
13.389
26.029
29.2529
26.7405
22.1733
18.1551
13.7281
8.78853
4.94105
1.94068
-0.837415
-0.61861
-0.314593
87.3814
87.5053
88.4231
90.1247
91.0043
88.8399
77.3205
46.5961
44.0086
40.5658
35.2567
29.8923
28.4241
28.4554
26.8436
23.7025
19.9492
16.9805
12.2019
7.16107
3.66486
1.06913
-1.42523
-0.808278
-0.406443
86.1251
86.1197
86.6602
87.6828
87.5088
83.9058
74.5086
63.0618
56.3575
51.8438
40.569
31.5396
33.9809
32.8073
28.6216
23.4281
18.0352
16.767
11.1161
5.25272
2.1209
0.18596
-1.97206
-0.910314
-0.418835
85.003
84.9085
85.1152
85.4531
84.6595
81.0426
75.4504
68.4529
62.9598
58.9709
43.3606
35.9957
36.1435
35.1668
30.2752
25.0011
20.202
18.9812
10.6632
3.24055
0.899819
-0.69544
-2.2596
-1.01964
-0.351777
84.0888
83.971
83.9849
83.929
82.9552
79.9511
76.3152
72.0521
68.0434
63.4843
55.7164
44.4341
34.6472
32.9105
29.432
24.7554
21.2085
18.1486
11.1441
3.52039
1.01138
-1.32105
-2.2849
-0.798425
-0.17831
83.345
83.2294
83.183
83.0009
82.3079
80.3249
78.6037
76.102
72.616
69.0989
64.5759
49.6299
29.3798
30.659
29.7814
25.7462
21.3472
17.1781
10.8094
3.81647
0.467808
-1.61519
-2.26854
-0.657545
-0.0510475
82.7207
82.5915
82.4361
81.8994
81.6037
82.9423
83.5635
80.3646
76.6933
73.3138
68.0007
51.033
31.6417
33.4688
32.0408
25.8776
20.2263
15.9894
8.03027
1.55045
-0.180742
-1.34764
-0.874106
-0.149277
-0.0568357
82.2012
82.0589
81.7634
81.5218
81.4112
81.2645
79.8381
75.9893
73.7132
70.4685
64.1027
52.5603
38.3582
36.5829
33.5767
26.2602
20.5981
18.1274
4.03603
-0.148079
0.844791
0.814349
0.325403
0.420332
0.0876588
81.7834
81.6508
81.4169
81.1652
80.9243
80.493
79.6067
72.6843
71.0174
68.1669
62.5087
53.4497
43.7388
40.5784
35.9952
29.5201
24.1264
20.0306
-1.93623
-0.547651
2.39887
2.59332
1.61666
0.852418
0.241153
81.4754
81.3353
81.0689
80.7041
80.1903
79.2369
77.1117
72.075
70.9761
67.9392
62.6503
54.7189
46.7994
43.1093
37.952
31.6508
25.0557
18.2617
-4.1127
0.0126701
2.69738
2.62813
1.44504
0.58216
0.45779
81.306
81.1558
80.846
80.3813
79.6825
78.5128
76.6028
73.1441
69.7924
66.2419
61.327
55.0293
48.3665
43.6139
38.3414
31.4937
23.579
13.208
2.73528
1.7458
3.8311
2.91228
1.45764
0.3514
0.784364
79.06
78.4146
76.4056
72.688
66.9763
60.8491
57.255
55.842
54.2178
51.1479
46.8548
42.0764
37.414
33.3707
29.4342
24.7524
19.8827
15.5532
11.9134
8.77436
5.92102
3.33602
1.40496
0.0838273
-0.23504
80.0618
79.5421
78.0149
74.7478
68.4134
60.842
57.1767
55.8473
54.6973
51.9022
47.7237
42.8417
37.8348
33.7248
29.9914
25.6064
21.0531
16.898
13.1421
9.68157
6.42703
3.3924
1.07978
-0.585704
-0.0627938
81.7576
81.3468
80.0293
77.4497
70.6489
60.6205
56.4032
54.8647
53.2505
50.3321
46.091
40.2784
35.1566
31.6998
29.1174
25.9622
22.1619
18.1203
14.0759
10.0086
6.28232
2.90209
-0.431495
-0.327909
0.150996
83.8681
83.5842
82.497
80.0507
73.3043
61.9424
56.5721
53.0408
48.3986
45.2549
42.4417
36.3876
32.148
29.953
28.404
26.0359
22.3059
18.1082
13.7952
9.76887
6.20529
2.90025
-0.512435
-0.200935
0.00785176
86.1145
86.0487
85.4783
83.5971
76.6282
65.9053
61.0061
51.2171
35.2864
32.1561
34.8414
32.6072
29.6432
28.7942
27.4985
25.557
22.2775
18.0948
13.8123
9.88236
6.25924
2.90912
-0.351327
-0.233356
-0.0981208
88.0708
88.3126
88.6706
88.3697
81.7315
73.3491
76.8747
48.5507
0.926201
12.0672
27.3845
28.105
26.6269
28.237
27.6108
25.4395
22.0352
18.0578
14.0372
10.093
6.21157
2.83218
-0.313926
-0.299675
-0.17096
89.1607
89.5206
90.5637
91.7279
87.8818
88.9775
103.863
122.351
17
28.494
30.1298
26.9471
22.4138
18.3536
14.8461
10.499
6.26362
2.7804
-0.388809
-0.3532
-0.214856
89.3262
89.647
90.8583
92.8285
94.0658
100.391
117.841
142.45
8.33346
29.6339
34.4292
29.3699
23.353
19.1084
15.7043
10.6966
6.20094
2.72873
-0.440521
-0.378807
-0.233913
88.8429
89.0795
90.1922
92.192
94.6546
99.7704
112.551
6.2047
11.3125
29.0367
33.3298
28.5316
22.8659
18.8513
15.1643
10.1613
5.90399
2.4795
-0.56273
-0.466696
-0.268109
87.9617
88.0906
88.9696
90.4902
91.6018
90.9277
81.5724
30.2792
27.7811
34.7707
32.199
16.0955
18.4984
27.6583
28.7397
25.4207
21.0519
17.6317
13.6903
8.94836
5.15549
2.03839
-0.863961
-0.636679
-0.341107
86.8779
86.9007
87.498
88.4764
88.2818
84.81
73.6203
53.6148
45.5921
41.8912
37.1883
32.2959
30.5402
29.6352
27.2265
23.6046
19.8491
16.4338
12.0504
7.49506
4.09307
1.30533
-1.35248
-0.831262
-0.42392
85.7564
85.6817
85.9739
86.4255
85.4569
81.3387
73.1635
62.9477
56.1521
50.7652
43.2095
37.0628
34.7747
32.1285
28.1873
23.7053
19.3779
15.9681
11.1217
6.19113
2.93722
0.518019
-1.85957
-0.969707
-0.451661
84.7567
84.6301
84.675
84.6887
83.4259
79.6157
74.3638
68.049
62.5525
56.7468
47.6309
40.9286
37.1209
33.7027
29.2397
24.6025
20.1853
16.527
10.8638
5.36372
2.0917
-0.111133
-2.152
-1.04063
-0.424223
83.9352
83.8167
83.7551
83.5337
82.2735
79.1212
75.7835
71.7565
67.3597
62.136
54.8963
45.9078
37.9402
33.6293
29.4607
24.9907
20.6759
16.4258
10.7731
5.21626
1.76501
-0.527985
-2.23526
-0.900203
-0.277557
83.2551
83.1529
83.0883
82.8379
82.0199
80.0207
78.7489
76.0742
72.0781
67.4304
61.1019
49.6744
37.569
33.463
30.056
25.5407
20.5315
15.7417
10.1301
4.63315
1.14128
-0.954928
-2.18951
-0.951582
-0.213193
82.6636
82.5494
82.3966
81.8439
81.6864
83.3717
83.8514
80.3362
76.1002
71.4971
64.7709
52.3366
39.0391
35.3356
31.3525
25.3592
19.3332
14.0413
7.58039
2.4157
0.131902
-1.22303
-1.10807
-0.425099
-0.176563
82.1534
82.0234
81.7409
81.5048
81.4102
81.297
80.053
76.7621
73.5184
69.3199
62.7991
53.1331
41.9932
37.3754
32.6602
25.7434
19.1943
13.2672
4.44654
0.881356
0.740727
0.463277
-0.0339264
0.171457
-0.0167375
81.7332
81.6051
81.3589
81.0472
80.6423
79.8745
77.8975
73.6922
70.8775
67.5288
61.8722
53.8028
45.2838
40.5443
35.3133
28.516
21.8524
14.3159
3.11918
0.766535
1.83513
1.84474
1.07114
0.515317
0.161408
81.4232
81.2871
81.0055
80.5863
79.9596
78.8679
76.8494
73.2562
70.4975
67.1703
62.0328
55.0195
47.7306
42.7789
37.3506
30.6518
23.2696
13.7642
3.08985
1.2302
2.33284
2.00514
0.959474
0.194233
0.422842
81.254
81.1103
80.7893
80.2864
79.522
78.2797
76.3328
73.2015
69.8248
66.0897
61.1941
55.129
48.7418
43.3853
37.8054
30.944
23.19
14.1777
5.42947
2.86986
3.24198
2.33086
1.10003
0.0491215
0.831266
78.575
77.9174
75.8947
72.3555
67.4111
62.2101
58.6313
56.5398
54.3903
51.1439
46.9089
42.2876
37.6598
33.4582
29.2707
24.404
19.4823
15.1873
11.6035
8.49646
5.67289
3.12049
1.23233
-0.022838
-0.288947
79.4629
78.8851
77.2726
74.0067
68.6925
62.6757
59.0632
56.8963
54.8546
51.8414
47.7754
43.2036
38.286
33.9042
29.7047
25.0841
20.5043
16.414
12.7481
9.37092
6.16977
3.15667
0.902077
-0.687734
-0.0994003
81.0002
80.4919
78.9431
76.131
70.7214
63.5653
58.754
56.0093
53.2699
49.9314
45.763
40.7277
35.9581
32.149
28.8023
25.2968
21.4546
17.6305
13.7101
9.79515
6.14671
2.66193
-0.530385
-0.392425
0.117456
82.9481
82.5378
81.1545
78.4919
73.0173
65.0536
59.2221
54.1842
48.5931
44.7917
41.7255
37.4652
33.723
31.011
28.407
25.3754
21.6365
17.6368
13.5707
9.55056
6.04208
2.64633
-0.623982
-0.27717
-0.0424238
85.0404
84.8009
83.8222
81.655
76.4395
68.9626
63.0138
52.1166
37.9304
34.6405
35.2852
33.8553
31.6075
29.9128
27.722
24.9365
21.47
17.6046
13.6209
9.66152
6.10496
2.72791
-0.476773
-0.301633
-0.145882
86.8951
86.8873
86.591
85.5169
81.3242
76.5115
75.6192
49.5543
4.71432
16.8865
28.1445
28.7255
28.6131
29.0678
27.5135
24.6638
21.177
17.5395
13.7936
9.91613
6.05192
2.75215
-0.431912
-0.353769
-0.2185
88.0448
88.1758
88.4982
88.7085
86.9792
87.6946
96.5754
115.422
19.6371
28.4394
28.7353
25.3527
21.2668
17.6247
14.3786
10.3138
6.14352
2.75729
-0.449033
-0.38924
-0.254884
88.3822
88.5388
89.1976
90.3613
91.3837
95.2556
105.746
129.466
11.342
27.3408
30.268
26.3259
21.5207
17.9703
14.9069
10.4595
6.18635
2.70026
-0.494859
-0.420851
-0.276191
88.0731
88.1832
88.8873
90.2227
91.6804
94.361
100.944
5.2362
11.1591
27.6432
29.8822
25.8695
21.1937
17.8317
14.5126
9.96689
5.9664
2.46427
-0.608987
-0.496214
-0.309545
87.3368
87.3589
87.9014
88.8289
88.9965
87.0457
77.5873
36.7169
33.594
37.9422
34.3051
16.666
24.4672
29.0363
27.898
24.1871
20.1977
16.984
13.2783
9.04952
5.28812
2.13272
-0.827824
-0.63785
-0.371898
86.3866
86.3183
86.6173
87.0326
86.0833
81.9126
72.2171
56.6592
47.8379
43.6485
39.1143
34.513
32.2644
30.3723
27.2417
23.3853
19.6587
15.9827
11.8939
7.83476
4.458
1.52995
-1.23421
-0.819963
-0.444401
85.3987
85.2604
85.3236
85.3319
83.8273
79.4025
72.2306
63.3231
56.3847
50.8004
44.7351
39.4979
35.7671
32.1717
28.0627
23.7874
19.5689
15.5509
11.109
6.86541
3.59256
0.877813
-1.67376
-0.966843
-0.477625
84.5186
84.363
84.2562
83.9928
82.3777
78.4236
73.4657
67.6782
62.0745
56.1782
49.2242
43.102
38.0959
33.5145
28.9117
24.4769
19.9514
15.608
10.8649
6.23681
2.90772
0.368592
-1.95734
-1.01434
-0.461144
83.7927
83.6716
83.5381
83.164
81.7032
78.4278
75.2632
71.336
66.7144
61.2899
54.5777
46.9254
39.846
34.4146
29.6145
24.9939
20.2768
15.5645
10.6359
5.92518
2.44717
0.0249126
-2.10493
-0.930846
-0.321751
83.1792
83.0872
83.0085
82.7084
81.8331
79.8266
78.7225
75.8526
71.4691
66.2867
59.6069
50.4799
41.2114
35.2771
30.4423
25.2944
19.832
14.786
9.75311
5.06055
1.69882
-0.54014
-2.09255
-1.08685
-0.285898
82.6201
82.519
82.3759
81.8377
81.8257
83.6949
83.9846
80.2453
75.6255
70.4244
63.4375
53.4556
43.0092
36.8511
31.1851
24.7262
18.4535
12.911
7.27928
2.82093
0.338051
-1.19255
-1.20954
-0.606573
-0.228348
82.119
81.998
81.7355
81.5251
81.4732
81.4038
80.2251
77.1506
73.3495
68.5871
62.1293
53.6048
44.3633
38.2725
32.3877
25.3371
18.5716
12.4401
5.49762
1.78697
0.732026
0.189075
-0.256677
-0.011423
-0.0281923
81.6948
81.5674
81.3165
80.9745
80.497
79.6462
77.8387
74.4082
71.0529
67.1443
61.5181
54.2373
46.5421
40.7526
34.8904
28.0362
21.1599
14.0086
5.53261
2.01285
1.7136
1.39616
0.752214
0.285318
0.21751
81.3818
81.2449
80.9529
80.5006
79.8159
78.6764
76.7364
73.603
70.4322
66.758
61.6679
55.2374
48.4094
42.7067
36.8868
30.0829
22.731
14.4361
5.84602
2.56891
2.27579
1.63116
0.685981
-0.0231461
0.51276
81.2119
81.0686
80.7381
80.2078
79.3997
78.1212
76.1691
73.2448
69.8546
65.9711
61.0897
55.2427
49.0067
43.2675
37.3995
30.5776
23.0466
14.9206
7.35473
3.81899
2.99053
1.9818
0.899951
-0.115571
0.895678
78.1618
77.5083
75.5178
72.1738
67.7924
63.217
59.6896
57.162
54.6015
51.1779
46.9558
42.4133
37.7957
33.4841
29.1097
24.1073
19.1547
14.8893
11.3407
8.2571
5.4596
2.94172
1.09612
-0.0961913
-0.318195
78.9603
78.3614
76.7214
73.5816
68.9767
63.9218
60.409
57.7325
55.131
51.9056
47.8695
43.4376
38.5426
33.9696
29.4395
24.6278
20.0277
16.0025
12.4109
9.10571
5.96153
2.9951
0.778504
-0.755482
-0.115349
80.3691
79.8176
78.1654
75.4024
70.9162
65.1375
60.2987
56.883
53.4894
49.8893
45.7506
41.0838
36.5071
32.4212
28.5572
24.7361
20.899
17.1668
13.3598
9.5471
6.00623
2.53013
-0.566339
-0.418857
0.101692
82.1791
81.7054
80.1665
77.5393
73.0208
66.5963
60.7811
55.1563
49.2715
45.1027
41.8076
38.0881
34.5867
31.5203
28.3202
24.8783
21.1402
17.212
13.3266
9.29655
5.8606
2.51446
-0.676332
-0.326025
-0.0776325
84.1387
83.8004
82.573
80.3738
76.228
70.1075
63.6266
53.0671
41.3879
37.6248
36.6203
34.8405
32.6644
30.4769
27.7227
24.456
20.9304
17.2005
13.3601
9.40503
5.8893
2.63512
-0.529168
-0.340427
-0.177633
85.904
85.7467
85.0409
83.7007
80.6022
76.2754
71.4948
50.4769
22.0279
27.0271
30.861
30.4291
30.0521
29.4607
27.2612
24.0516
20.6189
17.0899
13.3929
9.5973
5.8472
2.69459
-0.463416
-0.382076
-0.251933
87.0865
87.0613
86.9
86.6152
85.3202
84.2088
83.8765
43.6546
2.2708
26.2368
30.3211
24.858
24.5578
28.2762
27.3252
24.0428
20.3725
16.993
13.7178
9.91673
5.97282
2.73927
-0.449326
-0.404497
-0.284197
87.5478
87.5726
87.7885
88.3291
88.5972
89.3162
88.9741
21.3284
3.77813
29.2982
31.514
21.1748
20.3361
27.7095
27.9298
24.3444
20.3233
17.058
13.9424
9.97693
6.00354
2.66884
-0.486183
-0.437145
-0.30682
87.3801
87.3799
87.7117
88.4404
88.7753
88.4998
84.8049
-2.75863
20.4764
34.5265
32.4625
19.813
21.5951
28.2345
27.7955
24.1055
20.1154
16.9521
13.6967
9.65141
5.87012
2.46836
-0.599075
-0.505308
-0.338677
86.7734
86.7051
86.9339
87.3325
86.6578
83.4364
73.4992
45.7519
38.8941
39.417
35.2433
27.3256
28.935
29.5602
27.0748
23.3009
19.6577
16.3594
12.7266
8.94638
5.31506
2.21738
-0.774218
-0.629365
-0.393776
85.9466
85.805
85.845
85.8207
84.3221
79.696
71.1074
58.4965
50.0872
45.3737
40.8589
36.5472
33.6658
30.8529
27.1269
23.1966
19.4727
15.62
11.6588
8.0377
4.65458
1.68986
-1.13013
-0.796081
-0.457495
85.0792
84.8927
84.7562
84.438
82.555
77.9233
71.4013
63.5909
56.8187
51.1826
45.7166
40.7489
36.4526
32.3289
27.9695
23.7005
19.4987
15.2567
11.0581
7.29826
4.01279
1.14197
-1.50962
-0.939499
-0.490595
84.3084
84.1316
83.898
83.4101
81.542
77.4487
72.6972
67.3225
61.7848
56.019
49.9121
44.128
38.7344
33.6295
28.8499
24.3029
19.7163
15.214
10.7891
6.72596
3.40874
0.703434
-1.7938
-0.96932
-0.471784
83.6724
83.5504
83.3581
82.864
81.2616
77.8728
74.7825
70.9059
66.1665
60.7272
54.4276
47.5459
40.8708
34.9998
29.783
24.8954
19.9203
15.1016
10.5305
6.27842
2.87432
0.32499
-1.98158
-0.926951
-0.32449
83.1207
83.0423
82.9573
82.6384
81.744
79.7313
78.5982
75.5293
70.8993
65.471
58.89
51.0268
43.0215
36.4
30.7027
25.0516
19.2843
14.1218
9.54038
5.2749
2.04296
-0.283172
-2.02102
-1.15454
-0.289612
82.5913
82.5046
82.3805
81.8917
82.0641
84.046
84.0256
80.0822
75.2351
69.756
62.8481
54.2134
45.154
37.9094
31.1645
24.2057
17.7471
12.1717
7.01284
2.94483
0.395194
-1.22335
-1.2825
-0.713836
-0.21221
82.0973
81.9855
81.7512
81.5863
81.6001
81.5732
80.375
77.3293
73.1915
68.1187
61.7714
54.0168
45.7506
38.9233
32.2175
25.0033
18.1076
11.9278
5.99912
2.27014
0.655887
-0.0412091
-0.407949
-0.148362
0.0124924
81.6678
81.5412
81.2927
80.9438
80.445
79.5699
77.8136
74.7349
71.1225
66.8656
61.3045
54.5253
47.2833
40.9475
34.6274
27.7218
20.7482
13.8427
6.86056
2.94357
1.71318
1.13209
0.572855
0.117581
0.302978
81.351
81.2121
80.9148
80.4457
79.7335
78.5783
76.6822
73.7706
70.4059
66.4774
61.4464
55.3681
48.7977
42.7297
36.5913
29.744
22.4474
14.8144
7.53695
3.61048
2.30906
1.41932
0.579592
-0.110299
0.611983
81.1797
81.0347
80.6972
80.1492
79.3142
78.019
76.0739
73.2698
69.8614
65.8755
61.021
55.331
49.2059
43.259
37.1859
30.3877
23.0382
15.4918
8.60833
4.59787
2.99637
1.82462
0.829102
-0.166554
0.942175
77.8416
77.2001
75.2587
72.0903
68.1119
63.9739
60.5191
57.6971
54.7832
51.1822
46.951
42.4341
37.8253
33.4586
28.9603
23.87
18.9066
14.6698
11.1427
8.07227
5.28901
2.79805
0.996098
-0.13837
-0.317347
78.5758
77.9756
76.3362
73.3497
69.2457
64.8437
61.4362
58.3979
55.406
51.978
47.9531
43.4767
38.6267
33.9402
29.1908
24.2484
19.6538
15.6887
12.1549
8.89098
5.78596
2.86092
0.677218
-0.803124
-0.0891226
79.8887
79.3243
77.6374
75.0003
71.1101
66.0881
61.3478
57.5733
53.8139
50.0248
45.842
41.3069
36.8228
32.5259
28.3306
24.2941
20.4915
16.8269
13.0573
9.32054
5.81629
2.3992
-0.583907
-0.42422
0.115013
81.5917
81.0907
79.4773
76.9653
73.0589
67.4021
61.6809
55.932
50.1227
45.7409
42.1416
38.4949
35.0452
31.7158
28.1834
24.5187
20.7871
16.9425
13.0421
9.04828
5.67926
2.35895
-0.695348
-0.343016
-0.0833252
83.4468
83.0556
81.6817
79.5348
75.9549
70.3636
63.6771
54.2833
44.6545
40.2602
37.9526
35.5766
33.2053
30.6734
27.6094
24.1186
20.6016
16.9111
13.0446
9.12394
5.66424
2.4967
-0.549354
-0.363414
-0.186829
85.1407
84.8946
83.9314
82.4679
79.7278
75.1158
68.3001
52.0478
34.5768
33.2933
33.4946
32.2038
31.1006
29.6174
26.9714
23.5701
20.2295
16.7362
12.9645
9.22823
5.66211
2.61012
-0.460274
-0.393421
-0.258852
86.3364
86.2083
85.713
85.0798
83.5698
80.654
74.4957
48.5167
23.7079
29.5523
31.2929
28.728
28.3944
28.7272
26.6339
23.2283
19.7857
16.5135
13.1322
9.42324
5.82808
2.69263
-0.432117
-0.406211
-0.288336
86.8793
86.8065
86.6745
86.6991
86.0891
84.1094
77.4652
41.5918
22.3329
30.6258
31.4861
26.9502
26.6282
28.4732
26.8277
23.25
19.6131
16.4102
13.1512
9.45226
5.79448
2.60751
-0.450738
-0.436687
-0.310838
86.8168
86.7311
86.7464
86.9473
86.2932
83.574
74.8817
40.4267
30.8206
35.0407
33.2081
27.8328
27.7387
28.9074
26.7805
23.1511
19.4596
16.262
12.9902
9.29451
5.6627
2.4635
-0.559748
-0.501915
-0.34216
86.3166
86.1773
86.1377