/*--------------------------------*- C++ -*----------------------------------*\
  =========                 |
  \\      /  F ield         | OpenFOAM: The Open Source CFD Toolbox
   \\    /   O peration     | Website:  https://openfoam.org
    \\  /    A nd           | Version:  6
     \\/     M anipulation  |
\*---------------------------------------------------------------------------*/
FoamFile
{
    version     2.0;
    format      ascii;
    class       volScalarField;
    location    "25";
    object      epsilon;
}
// * * * * * * * * * * * * * * * * * * * * * * * * * * * * * * * * * * * * * //

dimensions      [0 2 -3 0 0 0 0];

internalField   nonuniform List<scalar> 
230684
(
0.195273
0.171615
0.151108
0.138822
0.242963
0.21203
0.186917
0.267654
0.350639
0.425576
0.480072
0.533868
0.588085
0.637421
0.682952
0.73171
0.793416
0.864675
0.934942
1.00051
1.06357
1.1148
1.15543
1.17393
1.16924
0.193258
0.174776
0.299722
0.240413
0.37276
0.47259
1.54191
0.459517
0.498618
0.535589
0.579086
0.666156
0.811811
0.983851
1.19703
1.51195
1.87946
2.40993
2.62353
2.6144
2.66726
2.70469
2.70987
2.30272
1.82816
0.193828
0.17369
0.306482
0.424231
0.406931
2.39692
1.76405
1.56137
1.22431
1.04127
1.07692
1.16996
1.26557
1.3995
1.70476
2.29733
2.6297
2.68795
2.6169
2.54168
2.47884
2.41811
1.688
0.909943
0.739771
0.190861
0.34111
0.53943
0.3931
0.24971
2.70345
2.34869
1.53035
1.76938
1.43994
1.196
6.03075
2.99978
1.756
1.9426
0.91476
0.7868
0.828232
0.973807
1.07421
1.09476
1.06153
0.823301
0.525031
0.396546
0.19364
0.174122
0.300888
0.409767
0.289438
0.436588
0.586518
0.775936
1.53853
1.93161
1.80356
4.83317
3.04726
1.83146
2.13211
1.48415
1.62727
1.44161
1.50471
1.49234
1.43173
1.32733
1.04224
0.618361
0.454228
0.193719
0.173652
0.300499
0.372868
0.346697
1.23765
0.844027
0.719752
0.989685
1.02519
1.29051
1.49226
1.78164
1.19337
3.73347
1.49863
1.11076
0.72737
0.774344
0.968786
1.07342
1.13298
0.945761
0.549027
0.408256
0.193804
0.173714
0.300918
0.373006
1.20967
1.06189
0.701196
0.58749
0.513021
0.494583
0.438558
0.70455
0.73426
0.794754
0.58358
0.633973
0.937441
1.11102
1.10805
1.09736
1.07474
1.05951
0.866453
0.4998
0.391761
0.194039
0.173786
0.304753
0.410779
0.259575
0.307012
0.321044
6.52275
2.96888
1.07786
0.790627
0.72785
1.20374
3.57504
1.63576
1.12313
0.847913
0.758432
0.802649
0.883871
0.950143
1.0004
0.8586
0.527884
0.402543
0.194127
0.173888
0.306838
0.423453
0.290882
0.228222
0.379412
7.84071
3.26261
1.13135
0.867142
0.770983
3.78102
2.76471
1.73768
1.10402
0.749368
0.64677
0.661908
0.750291
0.842774
0.928246
0.863955
0.533467
0.404478
0.194202
0.173969
0.307784
0.429079
0.297748
0.259515
0.411466
2.33709
3.00461
1.00933
1.58199
0.98476
1.21965
0.958126
1.13271
1.56596
1.62385
1.45596
1.26979
1.12712
1.06395
1.07476
0.919616
0.536069
0.412291
0.194222
0.174014
0.308167
0.428881
0.29158
1.11372
1.19993
3.41925
1.56299
0.978868
1.0426
1.46607
1.50891
0.77356
1.05595
1.48365
1.49809
1.25733
1.12876
1.01246
1.04495
1.09019
0.920973
0.51429
0.379998
0.194237
0.174063
0.309071
0.437056
0.304781
0.405976
1.28795
0.736655
1.91031
0.933434
0.608927
0.7174
0.489817
0.493619
0.683737
0.730979
0.8757
1.30138
2.03103
1.46833
0.727307
0.732815
0.557758
0.362553
0.283157
0.194261
0.174091
0.309596
0.442368
0.307686
0.497227
0.658829
1.44772
1.83843
1.28605
1.13106
0.660612
2.84296
1.21217
2.45825
1.24329
2.0622
0.417669
4.55555
2.1744
1.90077
1.5622
0.938328
0.646846
0.22999
0.194216
0.174161
0.30964
0.441964
0.320285
0.733975
1.22466
1.30732
1.17047
1.12565
1.29693
1.3623
1.25064
1.36091
1.76049
2.06127
0.735738
0.798526
2.53805
1.70733
3.84985
1.56805
1.20356
1.03503
0.229988
0.194213
0.174247
0.309228
0.43771
0.329948
1.09472
1.67954
1.62849
1.5596
1.65172
1.65781
5.65832
3.95759
1.5889
0.829542
1.09009
0.98889
1.04513
1.28066
1.42437
1.39077
3.39981
3.65243
1.4473
0.396632
0.192721
0.176873
0.299506
0.243795
0.192517
0.326613
0.795104
0.966501
1.02699
1.11635
2.1841
7.85293
3.53985
2.28368
0.947189
2.31971
1.58865
1.57088
1.49046
2.40502
1.35405
0.899977
0.356403
0.535125
0.553762
0.196722
0.170094
0.152297
0.138744
0.118003
0.124167
0.245496
0.322262
0.37728
0.720627
1.4865
1.12717
3.95579
2.13162
1.31059
0.833158
1.04717
2.8493
2.69629
0.906804
1.00144
0.460962
0.802004
1.14518
1.02426
0.196378
0.170633
0.152974
0.135588
0.126238
0.21535
0.362571
0.494905
0.702546
0.456166
0.780093
1.35307
1.0747
0.970735
0.82634
2.10791
1.63671
1.33916
11.5539
3.58122
2.03918
1.80323
1.66962
1.56307
1.45686
0.1957
0.171845
0.151908
0.137535
0.123932
0.117013
0.192466
1.036
0.525457
0.279594
0.590213
2.68862
4.54331
1.0626
0.683173
0.570171
0.536087
0.975814
10.2323
3.8438
1.73267
1.53489
1.53399
1.56077
1.42526
0.195962
0.17144
0.152523
0.137406
0.124752
0.116404
0.108439
0.0991995
0.0986646
0.103349
0.118486
0.269645
0.354706
0.290879
0.318311
0.345918
0.680474
1.35342
1.6476
0.847824
0.482624
0.51672
0.560033
0.603398
0.638756
0.0369517
0.0411952
0.0443138
0.0480532
0.0592704
0.0654826
0.0726208
0.191628
0.207711
0.22918
0.252282
0.2728
0.293801
0.320639
0.355202
0.396918
0.443882
0.49339
0.541478
0.583749
0.622087
0.653791
0.679619
0.688199
0.68462
0.037105
0.0415826
0.0508552
0.0606642
0.155825
0.637014
1.57768
1.50649
1.01412
0.768733
0.629172
0.573708
0.556014
0.605916
0.697828
0.843755
1.01116
1.15948
1.2768
1.3123
1.34773
1.37682
1.37179
1.36556
1.20349
0.0373984
0.0421542
0.0513908
0.071894
0.495609
3.7633
2.18147
1.09435
0.606632
0.567692
0.704665
0.782999
0.851233
0.96568
1.03409
1.05429
1.06442
1.07384
1.07542
1.06975
0.8831
0.617665
0.551639
0.0368948
0.0483178
0.0568633
0.110738
0.234455
1.30041
0.486403
0.240699
0.325835
2.22513
0.501979
0.294833
0.215722
0.195561
0.248174
0.321316
0.366087
0.38099
0.344196
0.296988
0.253559
0.0378406
0.0436555
0.0540695
0.0796892
0.194368
1.09056
1.05749
1.35558
0.915064
0.58792
0.487838
2.92307
0.542643
0.259858
0.301432
0.544308
0.70416
0.751423
0.653255
0.527097
0.399527
0.318809
0.0379451
0.0444818
0.0557451
0.0864412
0.407741
2.01688
1.57881
0.888233
1.67091
2.1842
1.3365
0.72066
0.403499
0.228892
0.208628
0.354044
0.519607
0.570136
0.462272
0.315988
0.266251
0.037748
0.0435005
0.0543555
0.0881371
1.05959
0.130637
0.976922
0.836615
0.690539
0.531104
0.376109
0.312944
0.321738
0.348587
0.378965
0.396712
0.359098
0.27973
0.238371
0.037422
0.0414166
0.0539274
0.0745018
0.199891
0.43792
0.63962
4.71007
1.07409
1.34179
1.02084
0.47216
0.252258
0.267163
0.330508
0.386179
0.413578
0.428943
0.392693
0.310894
0.249475
0.0372149
0.0408771
0.0514852
0.0682937
0.0702734
0.0911341
0.235056
1.24399
1.72588
0.941755
0.400766
0.23556
0.256209
0.323658
0.374913
0.410232
0.438725
0.397625
0.309165
0.248492
0.0371032
0.0409403
0.0496044
0.0670389
0.0696686
0.115835
0.218357
2.8315
5.02159
3.17129
1.9171
0.999547
1.6284
0.946688
0.909392
0.699995
0.476489
0.377688
0.365466
0.383993
0.405133
0.433515
0.388552
0.298218
0.242903
0.037008
0.0407156
0.0491796
0.0670615
0.152352
3.13337
1.32617
1.12499
0.55375
0.683292
0.703198
0.659048
0.630033
0.580329
0.540515
0.513408
0.471415
0.438555
0.366268
0.264287
0.222719
0.0368819
0.0400623
0.048564
0.0657952
0.0860048
0.416187
1.80177
1.54101
0.534925
2.23311
1.47343
1.73871
1.05688
0.463904
0.357668
0.277019
0.179219
0.164479
0.0367743
0.0395947
0.0495478
0.0646492
0.0958919
0.242638
0.485473
1.87401
1.93941
1.41802
1.28129
2.1159
0.401709
1.74521
0.691816
0.554764
1.78542
0.404559
0.164296
0.133004
0.101279
0.0366399
0.0398532
0.0476568
0.0637786
0.115263
0.329587
0.259202
0.27119
0.473685
0.638617
0.738184
1.16186
2.34511
1.22515
2.37569
1.40789
0.419514
0.298908
3.33164
0.589957
0.531746
0.231116
0.114611
0.0366767
0.0392988
0.0485138
0.0625415
0.132985
0.388688
0.296989
0.282462
0.383146
0.495274
0.621148
5.45917
2.74881
0.761992
0.377504
0.286213
0.339492
0.581938
1.17729
1.41841
1.18929
0.90748
0.328968
0.272348
0.036586
0.0392583
0.0508838
0.0523267
0.065932
0.167528
0.259557
0.260254
0.310943
0.417269
0.598358
17.24
2.05933
1.1755
0.840214
1.03446
1.43829
0.763474
0.598313
0.036796
0.0399904
0.0413146
0.0412319
0.0410111
0.0495287
0.0761852
0.195392
0.21991
0.243694
0.330014
1.66345
0.0591617
3.42304
3.73168
6.06821
2.13883
1.26568
1.01557
1.03499
1.14905
0.986156
0.0367943
0.0400433
0.0413841
0.0413576
0.0398628
0.0465812
0.0564703
1.58462
1.32074
0.844034
0.613511
0.511132
1.10421
8.44708
3.41581
3.107
3.66413
5.9692
5.89618
3.25126
2.47812
2.08787
1.6315
0.0367484
0.0400296
0.041309
0.0414779
0.0409792
0.0398665
0.0557223
4.31664
1.46769
0.693564
0.656113
1.99674
3.47537
1.13983
1.08016
1.04546
4.43978
9.14445
6.11645
2.74764
2.15126
1.82195
1.42998
0.0367564
0.0400135
0.0413008
0.041413
0.0408859
0.040283
0.0414294
0.0445036
0.0554758
0.0921235
0.127443
0.186205
0.281753
0.287732
0.308272
0.322591
0.340829
0.546773
6.46448
1.60343
0.665169
0.563652
0.524888
0.495737
0.470916
0.0295384
0.029404
0.0298022
0.0307892
0.0347678
0.0381942
0.0503033
0.108773
0.13216
0.170924
0.219096
0.254769
0.286834
0.323451
0.366568
0.414848
0.465978
0.516531
0.563755
0.605253
0.642061
0.673359
0.704911
0.696347
0.687613
0.029543
0.0295457
0.0306908
0.0333884
0.0721716
0.173562
0.364923
0.317523
0.287394
0.339736
0.433713
0.524221
0.560721
0.641278
0.765672
0.920773
1.07589
1.20166
1.30103
1.37141
1.40761
1.45409
1.41651
1.37012
1.20842
0.029598
0.0296955
0.0307168
0.0349022
0.27711
2.00105
1.48561
0.635668
0.276222
0.178812
0.174205
0.214786
0.333065
0.460431
0.603198
0.755766
0.863614
0.923228
0.972758
1.0089
1.02447
1.02759
0.827974
0.559402
0.546635
0.029602
0.0296227
0.0308426
0.0347685
0.0699755
1.7165
0.902359
0.353975
0.154563
0.0920704
0.0906435
1.61091
1.06076
0.454378
0.188666
0.117921
0.0964867
0.0892421
0.0911152
0.105545
0.12523
0.14035
0.129476
0.126446
0.145097
0.0297008
0.0300656
0.0315969
0.0372985
0.0902709
1.26497
1.22042
0.74886
0.718154
0.568215
0.328683
1.9536
1.96808
0.762758
0.244329
0.105223
0.0793953
0.0687286
0.0755017
0.112092
0.155741
0.17681
0.153316
0.127269
0.127406
0.0297059
0.0302812
0.0324864
0.0457635
0.653654
3.44959
3.17558
1.3839
0.582268
0.65908
0.440335
0.221724
0.128904
0.0939306
0.0701515
0.0611381
0.0794745
0.126639
0.166392
0.144421
0.111336
0.110352
0.0296503
0.0300117
0.0321267
0.0518531
5.27571
1.49126
1.52145
0.665265
0.440872
0.271465
0.120534
0.0735978
0.0755291
0.088879
0.10638
0.125068
0.119415
0.101331
0.10037
0.0295778
0.029567
0.0312098
0.0371412
0.14959
0.40742
0.620016
4.41967
1.19593
1.64301
1.01712
0.371908
0.123606
0.0766649
0.0939352
0.11574
0.131259
0.143514
0.130733
0.108621
0.106118
0.0295576
0.0294383
0.030449
0.0336304
0.0429685
0.0751401
0.438891
2.0782
1.59851
1.91382
0.897255
0.298731
0.102732
0.0755945
0.0975433
0.122225
0.139627
0.150924
0.133165
0.106856
0.104367
0.0295172
0.0294061
0.0302116
0.0329406
0.0478237
0.084715
0.189513
2.85679
3.95253
3.00308
0.884504
0.685542
0.826307
0.564109
0.4899
0.259276
0.116832
0.0828081
0.0879422
0.103538
0.11934
0.133869
0.122257
0.10028
0.0984889
0.0294942
0.0293233
0.0300997
0.0329139
0.0624853
0.166925
2.06511
8.53347
3.96021
2.29824
1.57712
0.839116
0.621654
0.642599
0.67347
0.591894
0.432062
0.252507
0.169847
0.14242
0.132811
0.12881
0.109758
0.0879665
0.0881064
0.0294793
0.0292321
0.0299537
0.0327856
0.0852704
0.157195
0.842167
3.59007
2.17865
1.64015
1.43832
2.31507
2.44435
2.5548
2.75293
2.67909
2.49361
0.815621
0.539555
0.333939
0.218058
0.134253
0.0851691
0.0654399
0.0673179
0.0294732
0.0291953
0.0298152
0.0329843
0.112032
0.145246
0.113086
0.174331
0.393655
0.894588
5.69441
2.69495
0.746387
0.481455
0.340004
0.391793
0.612964
1.00854
0.997642
0.431472
0.249747
0.128194
0.0740283
0.0528924
0.0511445
0.0294695
0.0291214
0.0297454
0.0339053
0.144903
0.178416
0.0932659
0.0823288
0.105243
0.152612
0.341764
0.406873
0.556957
0.420674
0.359293
0.292718
0.187538
0.150742
0.398992
0.587281
0.386531
0.264683
0.117435
0.0823273
0.0825688
0.0294585
0.0290857
0.0296785
0.0345462
0.166303
0.208601
0.106033
0.0816656
0.0941237
0.126715
0.172811
2.01293
3.13709
1.07109
0.33731
0.143685
0.103811
0.0921844
0.112467
0.295578
0.340225
0.251794
0.17115
0.286248
0.290611
0.0294418
0.0290741
0.0298545
0.0319849
0.0616235
0.177053
0.169388
0.114647
0.111559
0.141736
0.245577
2.76184
3.52664
1.5359
0.883437
0.714939
0.598093
0.590529
0.663991
0.701332
0.616143
0.541848
0.549086
0.706862
0.671507
0.0294451
0.0290946
0.0287643
0.0283882
0.0303996
0.0463473
0.0778923
0.15292
0.152492
0.153741
0.196381
0.976445
5.31561
4.82079
2.42077
1.73
1.30101
1.6862
2.53613
2.02351
1.51943
1.35688
1.19104
1.11908
0.996847
0.0294487
0.029083
0.0287398
0.0284194
0.0277063
0.0304955
0.0441228
0.601353
0.700099
0.572922
0.459737
0.4263
0.52286
0.565159
0.58615
0.772646
1.16489
2.3643
6.58454
3.44714
2.75653
2.11354
1.85628
1.68621
1.4077
0.0294511
0.0290763
0.0287248
0.0283922
0.0279167
0.0278578
0.0361524
5.20231
1.63157
0.589362
0.606886
0.622104
0.712871
0.698544
0.558202
0.529219
0.579493
1.36918
4.28247
2.58
1.59101
1.48868
1.36407
1.28407
1.10938
0.0294534
0.0290788
0.0287238
0.0283656
0.0279296
0.0277995
0.0285461
0.0319507
0.0453892
0.0909541
0.137813
0.188524
0.23249
0.277538
0.29721
0.304298
0.3344
0.394925
0.532396
0.606454
0.430757
0.411918
0.40585
0.392659
0.385898
0.0292035
0.0281416
0.0272255
0.0272522
0.0281361
0.031335
0.0395969
0.0528515
0.0741074
0.120763
0.192423
0.256347
0.306751
0.353341
0.404397
0.458076
0.512502
0.563913
0.610464
0.650968
0.686833
0.717043
0.737277
0.733808
0.722335
0.0292211
0.0281683
0.0276833
0.0277292
0.0346502
0.0626061
0.116574
0.130685
0.155765
0.247701
0.384733
0.517444
0.607922
0.708746
0.844978
0.99771
1.14577
1.25848
1.34374
1.4043
1.44881
1.4843
1.45714
1.35816
1.25061
0.0292409
0.0282326
0.0277568
0.0281445
0.0494353
0.175815
0.212684
0.154942
0.106122
0.118352
0.161362
0.209318
0.282284
0.396488
0.549761
0.704529
0.817397
0.879588
0.93089
0.964834
0.976732
0.97862
0.782207
0.536301
0.5396
0.0292879
0.0282349
0.027853
0.0284282
0.0410472
0.117559
0.135796
0.105363
0.0735898
0.0626068
0.0559823
0.0863822
0.147389
0.121916
0.0814498
0.0676714
0.061343
0.0589473
0.0582566
0.0599312
0.0625456
0.0640299
0.0620488
0.0731333
0.0905431
0.0293445
0.0281981
0.0281391
0.0296836
0.0501337
0.220543
0.309516
0.32957
0.533241
0.489367
0.23381
0.187102
0.278917
0.188102
0.0873828
0.0497398
0.0387861
0.0336278
0.0315917
0.0332034
0.03749
0.0411682
0.0409315
0.0416508
0.0489238
0.029336
0.0282026
0.0286397
0.033224
0.17475
1.14852
0.862357
2.28221
2.70432
2.49175
1.57863
0.317715
0.181673
0.151174
0.0997581
0.0635915
0.0434189
0.0339348
0.0304834
0.0314362
0.0359673
0.0405994
0.0399836
0.0390886
0.042807
0.0293236
0.0281059
0.0284956
0.0347959
0.301765
0.907016
0.72774
1.92734
0.743827
0.364275
0.331015
0.210705
0.0844823
0.0370732
0.0313445
0.0323466
0.0346906
0.0372955
0.0375904
0.0372015
0.0409728
0.0292749
0.028089
0.0279562
0.0296322
0.045323
0.152002
0.581921
4.29657
1.25917
1.79437
0.93526
0.367009
0.109886
0.0395419
0.033652
0.0355879
0.0374729
0.0392776
0.0386254
0.0381682
0.0416484
0.029229
0.028122
0.0276537
0.0279134
0.0379319
0.0711691
0.682562
3.31301
2.1213
2.04813
0.877336
0.299599
0.0846995
0.0362916
0.0338339
0.0362793
0.0383806
0.0400263
0.038883
0.0379301
0.0413154
0.0291976
0.0281572
0.0274865
0.0276015
0.0458207
0.0729063
0.172999
2.83839
3.4945
1.97185
0.807945
0.543503
0.528025
0.478364
0.368032
0.17031
0.0627974
0.0359214
0.0336549
0.0348577
0.0366615
0.038391
0.0377259
0.037052
0.0401544
0.0292021
0.0281436
0.0273577
0.0278728
0.062019
0.0874693
0.204013
1.93555
1.26656
0.630468
0.247323
0.122789
0.127097
0.164508
0.181368
0.168022
0.131673
0.0934469
0.0686223
0.0525327
0.0441948
0.0401651
0.0370734
0.0354843
0.0382052
0.0292389
0.0280798
0.0272459
0.0285081
0.0872339
0.102334
0.115963
0.615652
0.848071
0.397953
0.210259
0.231471
0.220414
0.200102
0.226906
0.268169
0.287175
0.239668
0.179107
0.138363
0.0976142
0.0567258
0.037984
0.0336357
0.0344901
0.0293118
0.0279387
0.0271787
0.0290688
0.115217
0.114788
0.065045
0.064452
0.101192
0.128082
0.317263
0.390109
0.293756
0.168749
0.109013
0.105205
0.132801
0.129605
0.120777
0.122242
0.0961536
0.0593176
0.0398977
0.0350359
0.0355887
0.0293103
0.0277408
0.0272213
0.0302515
0.149728
0.136999
0.0675358
0.0421457
0.0417455
0.0533486
0.0822207
0.144592
0.173779
0.130233
0.0888641
0.0790711
0.0687801
0.0588236
0.0633144
0.0945801
0.0806443
0.0637866
0.0490963
0.0735261
0.083958
0.0292233
0.0277516
0.027247
0.0318625
0.176198
0.165359
0.0783552
0.0447755
0.0403081
0.0457252
0.0580206
0.14957
0.640014
0.402114
0.151904
0.0746713
0.0650669
0.0667675
0.0752376
0.105384
0.1279
0.12838
0.192314
0.371684
0.371438
0.0292694
0.0279755
0.0271082
0.0298164
0.0649043
0.174008
0.144071
0.0831741
0.0670562
0.070955
0.092304
0.331942
0.736257
0.680562
0.544953
0.491428
0.524898
0.56725
0.654837
0.683752
0.683191
0.667041
0.778124
0.779292
0.758907
0.0291659
0.028152
0.0266065
0.0259328
0.0290215
0.0481501
0.0875565
0.115519
0.116848
0.11862
0.142542
0.226081
0.336904
0.396708
0.587371
0.732535
0.695529
0.890239
1.21213
1.22556
1.16874
1.08909
1.02806
1.00209
0.947705
0.029218
0.0280049
0.027005
0.0256034
0.0254466
0.027298
0.0355976
0.128363
0.198694
0.216161
0.21638
0.237403
0.270634
0.298669
0.313659
0.340007
0.405783
0.689414
1.38305
1.20084
1.21209
1.21637
1.19668
1.16702
1.08174
0.0292732
0.0279281
0.0269405
0.0259884
0.0249208
0.0250274
0.0269123
0.0593984
0.122229
0.180104
0.257389
0.298436
0.313222
0.322246
0.322436
0.332699
0.332813
0.44484
0.754921
0.693805
0.748314
0.792507
0.793952
0.804134
0.773319
0.0292728
0.0279488
0.0268644
0.0260774
0.0250352
0.0245977
0.0250607
0.026841
0.0351525
0.0538095
0.0859369
0.155664
0.213637
0.251254
0.265043
0.266648
0.269146
0.280481
0.290882
0.296944
0.301967
0.304381
0.304936
0.306901
0.307043
0.0292262
0.0279851
0.0270346
0.0261519
0.0262647
0.0284602
0.0338859
0.0433253
0.0617853
0.101872
0.177719
0.261167
0.32897
0.387627
0.443969
0.500326
0.555458
0.606574
0.652585
0.692586
0.727512
0.756255
0.773952
0.767611
0.753906
0.0292177
0.028052
0.0273728
0.0263876
0.0290784
0.0431712
0.0714194
0.0869006
0.127407
0.228449
0.37597
0.530294
0.667454
0.785747
0.923537
1.06639
1.20134
1.30018
1.37792
1.43198
1.4765
1.51666
1.47478
1.3655
1.25611
0.0292036
0.0281697
0.027235
0.0267859
0.039483
0.0703929
0.0693066
0.0621436
0.0725783
0.11343
0.177636
0.246865
0.324864
0.433599
0.571938
0.70774
0.812872
0.869341
0.914493
0.94164
0.949453
0.948007
0.758805
0.524605
0.535644
0.0292422
0.0281875
0.0272545
0.027159
0.0365833
0.0544231
0.0527602
0.0474794
0.0458672
0.0477622
0.044506
0.0430045
0.0475047
0.0500432
0.049548
0.0499785
0.0507047
0.0510461
0.0515383
0.0521894
0.0522774
0.0519198
0.0480697
0.0616214
0.0789437
0.0293115
0.0281078
0.0273897
0.0277511
0.0378805
0.0651995
0.0868448
0.12851
0.330931
0.307403
0.155303
0.0818087
0.0664161
0.0557419
0.0420091
0.0332523
0.0287219
0.0263482
0.025208
0.0249082
0.0251222
0.0254618
0.0254619
0.0270457
0.029577
0.0293619
0.0279839
0.0277338
0.0290401
0.0468009
0.144458
0.249436
2.6581
6.72797
2.90433
0.778617
0.236411
0.112016
0.0876814
0.0666232
0.0471533
0.0329738
0.0268328
0.0250211
0.0246229
0.0248686
0.0252841
0.0251936
0.0250126
0.0258387
0.0293191
0.0279888
0.0276508
0.0290014
0.0447784
0.13482
0.400903
3.10574
0.562585
0.391838
0.310188
0.19128
0.0787646
0.0321463
0.0252696
0.0246497
0.0247462
0.0250075
0.024912
0.0246164
0.0252659
0.0292473
0.0280448
0.0273202
0.0275654
0.0341431
0.0743279
0.581675
5.31564
1.5602
1.40643
0.613714
0.29696
0.104665
0.0344796
0.0255237
0.0249096
0.0249859
0.0251549
0.0249946
0.0247548
0.0253206
0.0292006
0.0280773
0.0271856
0.0268046
0.0366963
0.069476
0.745257
3.8466
2.50256
1.32995
0.583258
0.250062
0.0794567
0.030676
0.0252917
0.0249516
0.0250721
0.0252456
0.0250576
0.0247778
0.0252979
0.0291621
0.0281359
0.0270347
0.0267656
0.0458182
0.0705879
0.145004
2.35305
2.63794
1.46311
0.641636
0.429146
0.42007
0.433823
0.327523
0.15152
0.0532053
0.0285167
0.0254718
0.0250182
0.0250056
0.0251718
0.0250187
0.0247257
0.02517
0.0291726
0.0281297
0.0268592
0.0271749
0.0618178
0.0789201
0.0709478
0.183137
0.333631
0.255091
0.129092
0.0792983
0.0828871
0.0897447
0.0773124
0.0581507
0.0446728
0.0378254
0.0333667
0.0295865
0.0271523
0.0259415
0.0252641
0.0247501
0.0250193
0.0292386
0.0280205
0.0267591
0.0278913
0.0856426
0.0933438
0.0661523
0.088785
0.156569
0.109889
0.0701807
0.0684533
0.0736301
0.0651999
0.058054
0.0585776
0.0629552
0.0592272
0.0518924
0.0447671
0.0372801
0.0302062
0.0265199
0.0251302
0.0251626
0.0293214
0.0278469
0.0267878
0.0288208
0.114771
0.107662
0.0581864
0.0416327
0.0441026
0.0513599
0.0593676
0.0798674
0.0829582
0.0614248
0.045477
0.0433579
0.0457086
0.0459063
0.0437425
0.0431501
0.0387217
0.0319141
0.0276154
0.0288243
0.0307196
0.0290783
0.0277005
0.0268864
0.0304916
0.150953
0.128413
0.0648745
0.0369826
0.0324902
0.0351815
0.0400612
0.0530557
0.0628713
0.0524164
0.0402903
0.0357756
0.0337711
0.0323416
0.0322413
0.0349897
0.0352626
0.0327857
0.0354725
0.0819971
0.0970302
0.0291985
0.0276498
0.0269982
0.0324825
0.182573
0.157343
0.0742499
0.0411121
0.0341843
0.0353861
0.0395225
0.0524324
0.104363
0.103588
0.0684276
0.0580663
0.0650212
0.0776135
0.0927713
0.112093
0.131715
0.148748
0.257844
0.468984
0.460619
0.0292763
0.0279109
0.0267376
0.0294951
0.0687311
0.176581
0.139619
0.0787042
0.060163
0.0602954
0.075758
0.130881
0.27013
0.346917
0.38091
0.441785
0.527383
0.607945
0.700446
0.764596
0.789422
0.808167
0.874186
0.869529
0.848752
0.0291454
0.0281237
0.0262936
0.0255784
0.0293111
0.0497238
0.093523
0.112875
0.113805
0.10979
0.116344
0.141686
0.192659
0.259577
0.317091
0.394586
0.466322
0.578412
0.727042
0.833943
0.877754
0.879847
0.882581
0.885669
0.883081
0.0292113
0.0279411
0.0268055
0.025136
0.0250572
0.0274424
0.0359875
0.0571619
0.102456
0.138398
0.153991
0.166063
0.185645
0.207936
0.226012
0.254683
0.291285
0.352565
0.49526
0.637016
0.727328
0.781544
0.814395
0.824724
0.823754
0.029292
0.0278281
0.0267471
0.0255994
0.0243239
0.0243933
0.0258992
0.0309274
0.0471436
0.092177
0.143815
0.197038
0.221874
0.23508
0.239093
0.249953
0.25759
0.277388
0.319849
0.373404
0.421382
0.471968
0.503058
0.541289
0.547489
0.0292912
0.0278556
0.0266432
0.0257044
0.0245112
0.0238615
0.0241567
0.0255231
0.0286335
0.0414689
0.0680071
0.126696
0.182565
0.219205
0.233547
0.240811
0.240583
0.243893
0.242895
0.238091
0.23661
0.237179
0.237923
0.239436
0.241677
0.0292638
0.0278998
0.0270999
0.0258281
0.0254337
0.027111
0.0319593
0.0411264
0.0608035
0.0998213
0.177617
0.265265
0.350383
0.421603
0.480239
0.538247
0.594057
0.645478
0.691193
0.730899
0.764528
0.791403
0.807335
0.798376
0.782539
0.0292182
0.0280273
0.0273379
0.0260081
0.0276888
0.0382953
0.0609261
0.0768721
0.122821
0.226817
0.378422
0.546188
0.708216
0.847551
0.986383
1.12237
1.24467
1.33568
1.40497
1.46217
1.50247
1.52172
1.49102
1.38212
1.26413
0.029187
0.0281551
0.0271982
0.0264563
0.0370894
0.0581057
0.0506797
0.0463173
0.0644791
0.11173
0.186944
0.275474
0.369981
0.481248
0.605517
0.722303
0.81499
0.866128
0.905954
0.92752
0.932725
0.93154
0.744573
0.516337
0.532588
0.0292157
0.0281742
0.0271952
0.0268227
0.0352155
0.04673
0.0403501
0.0343527
0.0342101
0.0375783
0.0383922
0.0371086
0.0367282
0.0385681
0.0415542
0.0445802
0.0465732
0.0483081
0.0494273
0.0503314
0.0503265
0.0494678
0.0483325
0.0598314
0.0772157
0.0292547
0.0281562
0.0272358
0.0271021
0.0339236
0.0451526
0.0471978
0.0639579
0.151549
0.155705
0.0965511
0.0577914
0.0412959
0.0357468
0.0321631
0.0289206
0.0264796
0.0250901
0.0244107
0.0240488
0.0238242
0.0237642
0.023634
0.0245906
0.0261235
0.0292879
0.0280924
0.0273208
0.0275392
0.033767
0.0516697
0.105556
2.30599
4.41145
1.63341
0.54679
0.189941
0.0983013
0.0722572
0.05408
0.0394218
0.0295579
0.0254638
0.0243085
0.0238975
0.0236464
0.0235857
0.0233926
0.0227843
0.0224002
0.0292733
0.0280513
0.0273143
0.0274585
0.0321001
0.0544457
0.264839
5.64563
0.853738
0.484342
0.253021
0.135706
0.0590076
0.0291842
0.0245054
0.0238565
0.0235779
0.0235378
0.0233382
0.0226827
0.0220101
0.0292329
0.0280432
0.0272495
0.0268916
0.0315712
0.057756
0.482567
10.0718
3.66502
0.567164
0.275352
0.155276
0.0676405
0.0303411
0.0245414
0.0238164
0.0236146
0.023537
0.0233394
0.0226887
0.0220003
0.0291908
0.0280753
0.0271556
0.0265523
0.0359888
0.06566
0.57843
1.82218
1.76625
0.537643
0.266964
0.137813
0.0554066
0.0281807
0.0243512
0.0237781
0.0236103
0.0235553
0.0233724
0.0227368
0.0220377
0.0291501
0.0281462
0.026998
0.0266395
0.0454467
0.06853
0.105427
1.62516
1.64189
0.862576
0.452358
0.413756
0.397091
0.308561
0.196114
0.0982711
0.0416554
0.0265197
0.0243096
0.023814
0.0235845
0.0235992
0.0234319
0.0227937
0.0220879
0.0291695
0.0281313
0.0268197
0.0270784
0.0606867
0.0763687
0.056704
0.0666029
0.113762
0.12412
0.0804534
0.063314
0.0656074
0.0665034
0.0539558
0.0386886
0.0298274
0.0267905
0.0255554
0.0246319
0.0240306
0.0237874
0.0235763
0.0229353
0.0222401
0.0292467
0.0280048
0.0267338
0.0278209
0.0831579
0.0903785
0.0557607
0.044337
0.0472869
0.0484824
0.0425264
0.0397796
0.0399989
0.0377787
0.0337615
0.0310802
0.0300856
0.0293295
0.0282198
0.0268784
0.0256227
0.0246884
0.024006
0.0232909
0.0230591
0.0293216
0.0278216
0.0267939
0.028974
0.113538
0.105978
0.0586019
0.036047
0.0328495
0.0349419
0.0363811
0.0372732
0.038438
0.0351949
0.0310394
0.028913
0.0283334
0.0279556
0.0272854
0.026727
0.0261021
0.0252135
0.024392
0.0277466
0.0305888
0.0290974
0.0276654
0.0269276
0.0310385
0.152591
0.127552
0.0656279
0.0373979
0.031105
0.0322098
0.0334943
0.0350683
0.0364286
0.0336165
0.0298655
0.0277899
0.0269442
0.0266264
0.0264449
0.0266603
0.0271214
0.0271666
0.0335463
0.0933973
0.112739
0.0290691
0.0276009
0.0272406
0.0331885
0.188628
0.158343
0.0748599
0.0413694
0.0339262
0.0341172
0.0357083
0.0386786
0.0457256
0.0492801
0.0503081
0.0579437
0.0732944
0.0923232
0.11431
0.138849
0.164232
0.189807
0.324162
0.553392
0.541656
0.0292822
0.0278917
0.0267494
0.0298246
0.0728306
0.17945
0.141084
0.0788424
0.0591915
0.0575728
0.0679841
0.100023
0.168688
0.246575
0.325923
0.426453
0.539838
0.648106
0.752514
0.833523
0.887534
0.924688
0.951987
0.950917
0.92389
0.0291378
0.0281506
0.0261278
0.0257668
0.0299766
0.0517305
0.0981913
0.114929
0.114437
0.109344
0.109271
0.123155
0.157563
0.215881
0.272291
0.337497
0.402432
0.479697
0.579066
0.668728
0.734231
0.767945
0.799519
0.819524
0.836968
0.0292024
0.0279539
0.0267717
0.0250991
0.0251141
0.0278499
0.0371362
0.0566376
0.0923866
0.123724
0.137887
0.145895
0.159589
0.173978
0.191327
0.219843
0.252224
0.285658
0.353611
0.430265
0.500568
0.553002
0.596274
0.622481
0.64946
0.0292972
0.0278138
0.0267661
0.0255212
0.0242486
0.0243605
0.0259427
0.030697
0.0410625
0.0766567
0.120168
0.162839
0.188581
0.202075
0.208211
0.215082
0.222039
0.23144
0.24452
0.266603
0.291769
0.319526
0.344196
0.366461
0.389353
0.0292937
0.0278519
0.0266246
0.0256845
0.024383
0.0237535
0.0240657
0.0252654
0.0280661
0.037037
0.0648999
0.117819
0.168146
0.203998
0.214839
0.222512
0.222096
0.220565
0.212149
0.20072
0.194723
0.192508
0.192428
0.192278
0.193219
0.0292845
0.0278531
0.0271207
0.0256999
0.0251007
0.0266477
0.031672
0.0418073
0.0620602
0.105406
0.186873
0.278486
0.369694
0.44767
0.510686
0.572105
0.63021
0.683188
0.729743
0.769418
0.802106
0.827697
0.841772
0.830213
0.81211
0.0292128
0.0280174
0.0273036
0.0258669
0.0272983
0.036894
0.0589632
0.0766932
0.12689
0.233469
0.388338
0.564133
0.742199
0.893684
1.03737
1.17178
1.2874
1.37484
1.44821
1.50325
1.53735
1.55102
1.51697
1.40423
1.28373
0.0291724
0.0281451
0.0271644
0.0263472
0.0366753
0.0562857
0.0491958
0.0449754
0.0634987
0.111277
0.190703
0.290516
0.399026
0.51564
0.632037
0.736331
0.816096
0.862543
0.899552
0.917453
0.920663
0.918812
0.73419
0.512282
0.533579
0.0291996
0.0281476
0.0271704
0.0266627
0.0348387
0.0454594
0.0392254
0.0317316
0.030719
0.0330058
0.035399
0.0352584
0.0353489
0.0372519
0.040288
0.0431809
0.0449054
0.0473763
0.0485535
0.04969
0.0498331
0.0496399
0.0477623
0.0611802
0.07922
0.0292272
0.0281323
0.0272282
0.0268051
0.032824
0.0417365
0.0392959
0.0415386
0.0619338
0.0738854
0.0595783
0.043908
0.0351786
0.031707
0.0297085
0.0277214
0.0260906
0.0250836
0.02452
0.0241707
0.0239406
0.0238612
0.0238839
0.0255455
0.0271099
0.029249
0.0280865
0.0272817
0.0269472
0.0314066
0.0419271
0.0586713
0.495272
1.48464
0.66926
0.248404
0.100814
0.0629314
0.0513898
0.0413918
0.0328401
0.0274689
0.0251937
0.0244034
0.0240282
0.023775
0.0236795
0.0236167
0.0235827
0.0232319
0.0292467
0.02804
0.0272829
0.0268708
0.0303123
0.04473
0.142867
4.83924
6.6439
2.40235
0.684539
0.212244
0.144169
0.121956
0.0913989
0.0613812
0.0368168
0.0265791
0.0244845
0.0240068
0.0237561
0.0236566
0.02359
0.0234166
0.0229013
0.029219
0.028032
0.0272329
0.0266047
0.0311031
0.0524556
0.252389
6.36534
7.46472
2.37798
0.677296
0.223784
0.171182
0.178707
0.116573
0.0701501
0.0394844
0.0269757
0.0244799
0.0239646
0.023737
0.0236547
0.0235841
0.023398
0.0228756
0.0291818
0.028073
0.0271379
0.0264641
0.0359046
0.0611627
0.217403
7.01965
4.6201
1.62562
0.510435
0.198948
0.196622
0.181823
0.115069
0.0664908
0.0365811
0.026307
0.0243911
0.0239502
0.0237445
0.0236687
0.0236284
0.0234625
0.022929
0.0291452
0.0281466
0.0269674
0.0266247
0.045302
0.0659546
0.0752404
0.442522
0.676307
0.376483
0.161333
0.117574
0.137369
0.120939
0.0848043
0.0518013
0.0317637
0.0255896
0.0243155
0.0239034
0.023709
0.0237228
0.0236938
0.0235478
0.02301
0.0291763
0.0281158
0.0268088
0.0270729
0.0599607
0.0750371
0.0523236
0.0479686
0.0584608
0.0682191
0.053867
0.0482658
0.0491657
0.0482473
0.0405411
0.0320174
0.0270213
0.025166
0.0244231
0.0240044
0.0237628
0.0237703
0.0237663
0.0237039
0.0231969
0.0292593
0.0279842
0.0267449
0.0278851
0.0819688
0.089278
0.0549595
0.0365409
0.0340216
0.0353483
0.0354843
0.0339977
0.0337095
0.0323746
0.0299901
0.0276746
0.0261597
0.0253358
0.0247642
0.0242988
0.024007
0.0239719
0.0239473
0.0241853
0.0240671
0.0293218
0.027796
0.0268255
0.0291431
0.113874
0.106325
0.0598751
0.0358369
0.0305771
0.0315193
0.0326702
0.0321249
0.0315242
0.0303107
0.0285171
0.0269206
0.0258915
0.0252685
0.0247465
0.0243378
0.0241888