/*--------------------------------*- C++ -*----------------------------------*\
  =========                 |
  \\      /  F ield         | OpenFOAM: The Open Source CFD Toolbox
   \\    /   O peration     | Website:  https://openfoam.org
    \\  /    A nd           | Version:  6
     \\/     M anipulation  |
\*---------------------------------------------------------------------------*/
FoamFile
{
    version     2.0;
    format      ascii;
    class       volScalarField;
    location    "25";
    object      k;
}
// * * * * * * * * * * * * * * * * * * * * * * * * * * * * * * * * * * * * * //

dimensions      [0 2 -2 0 0 0 0];

internalField   nonuniform List<scalar> 
230684
(
1.42836
1.31382
1.2045
1.14159
1.04642
0.95158
0.866422
1.57327
1.88871
2.18806
2.41752
2.61989
2.82083
3.01765
3.17292
3.3187
3.5008
3.70917
3.91714
4.10217
4.27611
4.41387
4.51845
4.56058
4.55694
1.41949
1.32803
1.2001
1.0339
0.866615
0.951643
1.24575
1.51234
1.59306
1.67584
1.75983
1.91853
2.19139
2.52203
2.87097
3.31255
3.83238
4.52794
4.84788
4.90391
4.96648
5.02038
5.02855
7.24677
6.19629
1.42253
1.32203
1.21627
0.951506
0.908655
2.16144
1.69201
2.23108
1.8867
1.6057
1.61788
1.71088
1.78602
1.9793
2.2897
2.84214
3.15699
3.21798
3.18772
3.12277
3.07181
3.01523
3.77801
3.98905
3.42102
1.44677
1.28423
1.09645
0.869638
0.651633
2.31005
1.78809
2.0562
2.43116
2.14207
1.80853
2.91365
1.91445
1.34747
1.16351
1.54276
1.39092
1.40939
1.56616
1.68643
1.72876
1.69784
2.26643
2.68394
2.23471
1.42115
1.3244
1.19997
0.919465
0.711518
0.911038
1.12382
1.30319
2.11684
2.5375
2.27238
2.36099
1.93403
1.38821
1.4435
1.9387
2.06429
1.99847
2.08595
2.10855
2.07346
1.98869
2.69326
3.07476
2.48877
1.42183
1.32361
1.20234
0.865393
0.500474
1.43726
1.12319
0.988738
1.63804
1.67764
1.93922
2.039
2.15801
1.64167
1.82107
2.0318
1.76549
1.29979
1.31702
1.54469
1.6727
1.73912
2.46405
2.7647
2.27264
1.42218
1.32364
1.20412
0.863863
1.23906
1.27576
0.983908
0.800347
0.805537
0.777528
0.719287
1.02165
0.869597
1.62882
1.17054
1.17325
1.51276
1.68936
1.72622
1.72268
1.70003
1.68183
2.31119
2.62975
2.16702
1.42282
1.32246
1.21268
0.931239
0.682972
0.693212
0.716242
4.05329
2.61589
1.36806
1.07943
1.01679
1.18782
4.05984
2.37475
1.81321
1.50085
1.35827
1.39194
1.47625
1.54871
1.60252
2.30101
2.66063
2.21864
1.42283
1.32223
1.21677
0.949718
0.740239
0.605357
0.793212
5.03413
2.8368
1.42472
1.16803
1.07234
4.20985
3.36747
2.43623
1.81358
1.38282
1.22322
1.21773
1.30866
1.41816
1.50433
2.27241
2.67997
2.23053
1.42285
1.32219
1.21838
0.95743
0.749408
0.647306
0.84965
1.70667
3.35092
1.55855
2.09097
1.13241
1.8804
1.60785
1.66938
2.14555
2.22268
2.09526
1.92703
1.7745
1.68915
1.68768
2.41099
2.75461
2.2546
1.42281
1.32235
1.21924
0.955928
0.70169
0.785972
0.930151
2.6214
1.662
1.18024
1.2286
1.447
1.26333
1.27613
1.5795
2.10058
2.24414
1.98947
1.82691
1.68876
1.67499
1.71467
2.42501
2.58668
2.19395
1.42289
1.32254
1.22176
0.968982
0.763163
0.821731
1.20253
1.24951
1.66186
1.098
0.798579
0.953229
0.78099
0.732991
0.86039
0.983458
0.984244
1.78466
1.57628
1.33586
1.30356
1.31702
1.72324
2.05501
1.76544
1.42293
1.32254
1.22316
0.977703
0.76807
0.968837
1.18844
1.98925
1.73861
1.41492
1.16585
0.643022
3.27017
0.851035
1.43036
1.20052
1.36398
0.971081
2.68419
1.59467
1.42712
2.10856
2.44283
1.89019
1.48887
1.42271
1.32291
1.22322
0.977117
0.769803
1.23628
1.83606
1.99098
1.81434
1.71982
1.81346
1.86752
1.81968
1.81566
2.08703
1.28547
1.33363
1.39996
1.66488
2.1701
2.4152
1.40715
1.02953
1.55898
1.54814
1.42224
1.32318
1.22212
0.969822
0.776467
1.57172
2.28352
2.33147
2.22626
2.25299
2.23931
4.53219
2.3355
1.25137
1.22448
1.72115
1.62229
1.64623
1.78835
1.97714
1.92119
2.04785
2.18737
2.01098
2.18897
1.4154
1.33551
1.19651
1.04327
0.879709
1.13514
2.09463
2.5165
2.60737
2.71918
2.6707
3.03535
2.15136
1.41954
1.34664
2.15163
1.87061
3.40049
1.92406
1.92428
1.32218
0.972156
0.793464
2.71487
2.74319
1.43266
1.30499
1.20215
1.14008
1.01953
1.0275
1.00382
1.16036
2.08591
2.01613
2.04954
1.64901
2.35722
1.43151
1.02245
1.09697
1.26985
3.02857
1.92709
1.51695
1.01993
0.902671
2.13527
4.51834
4.13916
1.43255
1.30416
1.2125
1.1166
1.06506
0.958999
0.842052
0.946107
1.90904
2.40582
2.16561
1.93397
1.72239
1.42483
1.29254
2.16967
2.19669
1.90823
5.84735
3.89046
1.6034
6.24051
5.82203
5.43453
5.24292
1.42932
1.31042
1.20642
1.12893
1.05061
1.00803
0.90614
1.49226
1.62978
1.68833
1.76267
3.06444
3.24106
2.82351
2.12082
1.82183
1.71836
1.60738
5.5636
4.12555
3.87174
5.54169
5.35725
5.34016
5.18697
1.43053
1.30849
1.20913
1.12811
1.0569
1.00416
0.964143
0.911496
0.88972
0.912132
0.978895
1.04798
1.27818
1.77403
1.88188
2.01526
2.00523
1.93781
2.23781
2.35676
2.53551
2.62739
2.74976
2.87751
2.98553
1.47555
1.42526
1.36711
1.3332
1.30838
1.24849
1.41306
2.77442
3.17692
3.6532
4.19544
4.67769
5.12918
5.61403
6.13422
6.67962
7.23383
7.76025
8.23321
8.57626
8.95726
9.17244
9.12273
9.10039
8.89616
1.4744
1.42761
1.37012
1.30176
1.48972
1.84489
2.03752
3.98386
4.27999
4.48644
4.88986
5.56903
6.32433
7.14232
8.19687
9.46111
10.6842
11.5826
12.1136
12.3492
12.6112
12.6794
12.7514
12.7947
11.6784
1.47418
1.43013
1.36889
1.26285
2.64287
8.71713
6.65371
4.18179
2.94679
3.72605
4.64445
5.88731
7.51383
8.87034
9.42529
9.55224
9.56102
9.55536
9.52351
9.44547
8.37546
6.54793
6.19518
1.4778
1.42647
1.33608
1.33769
1.75831
4.26954
3.46087
2.679
3.06689
3.62427
3.21915
2.8312
2.39224
2.3968
2.84909
3.41657
3.67952
3.72974
3.53989
3.27975
3.071
1.47557
1.42925
1.36456
1.24715
1.45704
3.18193
4.1025
6.20037
6.07524
5.03903
4.60754
4.91585
2.53047
2.09505
2.46678
3.59655
4.56852
4.81909
4.69689
4.27705
3.63148
3.15629
1.47669
1.42536
1.38193
1.32872
1.59087
5.62251
5.98507
5.28057
5.60463
4.8065
3.872
2.6867
2.27104
1.7995
2.17531
3.2137
4.14539
4.3941
4.03007
3.32083
2.87857
1.47639
1.4242
1.38167
1.36653
2.54082
0.370271
1.75415
3.02493
3.91692
3.85706
3.3096
3.11455
3.24263
3.39686
3.5644
3.71304
3.59744
3.07224
2.76942
1.47406
1.42761
1.36673
1.26832
1.49132
2.23287
2.64597
3.28038
4.79037
7.00988
5.71187
3.62379
2.63198
2.86791
3.31042
3.58211
3.70162
3.86162
3.74922
3.16733
2.84977
1.47341
1.42761
1.36339
1.24713
1.18652
1.72796
3.47364
6.82889
8.53137
6.06727
3.53326
2.49011
2.72233
3.14468
3.5501
3.78783
3.88125
3.74727
3.14775
2.86034
1.47345
1.4274
1.3629
1.24571
1.23405
2.14077
3.03157
10.8898
8.0544
7.51145
5.78274
1.47674
3.17639
4.08359
5.90012
5.24472
4.02604
3.46873
3.42173
3.5654
3.77851
3.90038
3.75304
3.15837
2.86696
1.47344
1.42768
1.36334
1.2458
1.69996
3.79568
4.38606
1.55404
1.6506
3.32148
3.8622
4.21862
4.3475
4.21243
4.02927
3.90098
3.84317
3.87619
3.65774
3.00757
2.70322
1.47382
1.42769
1.36368
1.24602
1.59304
3.2059
3.56993
3.05255
0.952449
2.7588
3.88007
4.08936
2.59996
2.26636
2.7673
2.58385
2.14665
2.06264
1.47407
1.42798
1.36415
1.24734
1.92305
3.68628
3.22878
5.5064
2.7767
4.53109
4.74681
2.55097
1.02641
3.10823
2.58603
0.531353
2.53048
1.98699
1.69025
1.60175
1.55423
1.47469
1.42761
1.36609
1.25231
2.25826
4.5625
3.66539
3.25162
3.46624
3.4857
3.73406
4.63903
3.1412
3.39009
4.24563
1.75832
2.55984
2.40964
5.61502
2.02545
1.90427
1.58021
1.66544
1.47465
1.42728
1.36617
1.26787
2.57807
5.08155
3.98547
3.60939
4.07108
4.58916
4.92421
13.7556
4.26647
2.34846
2.38421
2.25621
2.74034
3.87099
4.35061
4.04655
2.23301
2.78991
2.18879
3.84938
1.47335
1.42843
1.3669
1.27654
1.53798
3.36876
4.19383
3.81163
3.77786
4.16629
4.68515
8.41008
3.99542
4.09994
4.26238
4.29819
3.44711
7.19155
6.83015
1.47807
1.41893
1.37536
1.29342
1.25784
1.42093
1.82148
3.36901
3.52764
3.45276
3.71588
5.63671
0.228284
2.14619
12.8573
7.52911
6.34739
5.59154
6.67338
8.54301
10.1892
9.71518
1.47727
1.41985
1.36693
1.30892
1.25295
1.19156
1.24106
4.20546
4.23875
4.08492
3.43756
3.71712
3.99875
4.56923
4.26965
4.22963
11.3598
10.2921
11.3576
15.4765
14.2478
13.1987
12.3871
1.47724
1.42222
1.36405
1.30748
1.25908
1.20132
1.21734
3.95062
3.75324
3.35485
3.4998
5.74307
6.69335
5.19812
5.22604
5.74416
12.2289
13.5043
16.0251
12.6307
12.0436
11.5532
10.5665
1.47746
1.42225
1.36425
1.30726
1.26198
1.20524
1.1838
1.15046
1.20803
1.38249
1.52677
2.2805
3.4659
3.92142
4.02037
4.18545
3.99808
4.44504
6.99327
5.22075
4.98939
5.11008
5.34367
5.38309
5.41571
1.47794
1.44877
1.40747
1.40536
1.4083
1.4201
1.61661
2.59018
3.11185
3.8468
4.76927
5.58939
6.34255
7.09474
7.8494
8.57159
9.24273
9.84757
10.3909
10.7625
11.1548
11.3052
11.3485
11.2767
11.0332
1.47869
1.44923
1.41909
1.4166
1.73228
2.3675
3.60337
3.55376
4.04249
5.06563
6.27246
7.41699
8.41645
9.50286
10.8368
12.3039
13.5675
14.419
15.0047
15.4315
15.7089
15.8514
15.7718
14.9291
13.9754
1.47936
1.45158
1.41879
1.41393
2.53318
5.52851
5.33362
3.73774
2.93467
2.79196
2.96883
3.64353
4.91487
6.48633
8.30395
9.74968
10.4926
10.8005
10.9684
11.0282
11.0322
10.9892
9.41051
7.29695
7.34752
1.48123
1.45159
1.4217
1.40476
1.85735
5.495
4.42612
3.50213
2.71602
2.27092
2.26465
5.73321
4.45583
3.15919
2.76204
2.51709
2.22313
2.13614
2.16017
2.33721
2.49856
2.59628
2.4488
2.44512
2.70634
1.48458
1.44488
1.42819
1.4395
2.05902
4.09768
4.45307
5.30288
6.05682
5.10022
3.9691
6.82173
5.55431
3.75629
2.46987
2.09025
1.82658
1.66789
1.73031
2.05518
2.43369
2.58905
2.42252
2.2325
2.23405
1.48422
1.44512
1.45359
1.60193
4.49371
7.85442
9.10105
5.88239
4.28364
4.18333
3.31765
2.62108
2.2295
1.85768
1.63897
1.64932
1.89629
2.27775
2.53709
2.36748
2.12492
2.09822
1.48437
1.44068
1.44914
1.65469
9.79639
2.24835
4.5839
3.555
4.06544
3.26001
2.13423
1.83442
1.90323
2.02901
2.16176
2.28708
2.21783
2.04368
2.01684
1.48107
1.44471
1.42542
1.4542
2.00106
2.84477
3.60719
3.27014
5.95503
7.46308
5.97287
3.34933
2.00778
1.84516
2.06699
2.24082
2.33968
2.40678
2.28899
2.09428
2.05953
1.47881
1.44714
1.41579
1.38639
1.601
2.31351
6.35204
2.65329
7.68834
8.98105
5.75121
2.98013
1.90844
1.82973
2.0778
2.27664
2.39103
2.46635
2.3089
2.08459
2.04959
1.47824
1.44792
1.41248
1.37843
1.77081
2.54978
3.67201
13.0765
10.9528
8.71051
3.14266
1.98829
3.09997
4.60499
4.88204
3.28583
2.1871
1.92887
1.99117
2.12512
2.25135
2.36514
2.26411
2.05435
2.01993
1.4784
1.44813
1.40925
1.3855
2.10764
3.14801
10.0091
4.01858
2.48714
1.85691
1.52408
1.75012
2.31662
2.85101
3.56463
3.58161
3.28231
2.67442
2.29549
2.25336
2.27681
2.33619
2.19589
1.96124
1.93607
1.47927
1.44676
1.40539
1.39862
2.62561
3.35167
4.14535
6.65208
3.79032
1.60323
1.29699
1.6812
1.70804
1.74337
1.86263
1.80548
2.61472
3.69742
3.11166
2.16962
1.99654
2.06398
1.83678
1.66565
1.66334
1.48087
1.4435
1.40363
1.41669
3.13416
3.57906
2.61453
2.61524
2.91449
4.57288
3.10685
3.01612
3.84399
3.41103
2.37706
1.52239
1.61093
2.93832
3.67745
2.30643
1.96908
1.85852
1.68404
1.52125
1.49134
1.4813
1.44007
1.40211
1.44034
3.61705
4.02126
2.62642
2.27467
2.39004
2.53565
2.83086
2.99875
3.73874
3.55221
3.13256
2.63972
2.29255
2.11589
2.80965
2.62191
2.28873
1.99547
1.65516
1.93458
2.05035
1.48076
1.43896
1.40287
1.4709
3.92045
4.40008
2.84479
2.34105
2.4003
2.68351
2.97655
9.61869
7.6266
5.0258
2.94537
2.22942
2.08139
2.04985
2.20512
2.93004
2.94209
2.45595
3.04801
5.22188
5.43567
1.48029
1.44382
1.40354
1.42942
2.0535
4.05644
3.93854
3.03093
2.82066
2.9658
3.44516
9.11726
7.67236
6.12031
5.22447
5.37623
5.22312
6.5606
7.21713
7.07057
6.6222
6.99959
7.79828
9.80396
9.74086
1.47928
1.44532
1.40105
1.35364
1.40055
1.74381
2.38102
3.62822
3.52111
3.50677
3.7769
6.91004
10.1776
10.8502
9.04564
8.9245
9.48373
13.0555
14.8119
13.2361
12.1679
12.7359
12.5924
12.4338
12.0575
1.48111
1.44084
1.40629
1.35844
1.3242
1.34133
1.61401
4.75094
5.10839
4.86294
4.1574
4.37275
5.07758
5.11096
5.44809
6.91436
9.59484
16.1357
20.2782
16.2593
16.0489
15.3529
15.1832
14.7969
13.7809
1.48131
1.44147
1.40199
1.36541
1.32257
1.29556
1.37065
5.54645
5.70664
4.55145
4.74658
4.85887
5.50447
5.55871
5.49197
5.33112
5.72054
9.94536
15.1319
13.3595
11.7221
11.6964
11.7754
11.8882
11.2963
1.48144
1.44169
1.40107
1.36598
1.32782
1.28739
1.28728
1.29931
1.46342
1.76938
2.20441
3.35817
4.31514
4.87898
5.0986
5.25356
5.20007
5.57446
6.65708
6.8743
6.18973
5.99742
5.98348
6.07975
6.11992
1.47773
1.4509
1.41717
1.41001
1.43472
1.52364
1.71643
1.98806
2.64211
3.71202
4.95821
6.07976
7.08803
8.07974
8.99494
9.78813
10.4791
11.0958
11.6019
11.8798
12.199
12.4637
12.5521
12.4957
12.2084
1.47826
1.4525
1.42768
1.42009
1.60029
2.19113
2.90639
3.1346
3.88376
5.33859
7.03427
8.51831
9.74309
11.0242
12.3835
13.7787
14.9516
15.7882
16.4394
16.8671
17.1412
17.2267
17.0246
16.0259
15.0073
1.47937
1.45425
1.42422
1.42866
2.06341
3.40607
3.33875
2.812
2.75531
3.182
3.79588
4.43827
5.37513
6.78794
8.5402
9.96089
10.7658
11.1125
11.2957
11.3616
11.363
11.3258
9.61576
7.40853
7.80096
1.48177
1.45305
1.42799
1.43422
1.85749
2.91324
2.8603
2.55737
2.29962
2.16914
2.06644
2.38096
2.61395
2.41063
2.27448
2.15201
1.98887
1.90382
1.89778
1.91208
1.92689
1.94117
1.87277
2.03122
2.29667
1.48545
1.44716
1.43783
1.46611
2.03856
3.24617
3.52198
3.95185
5.89711
4.98748
3.48096
3.38764
3.60544
2.77485
2.11439
1.7929
1.58106
1.46742
1.4404
1.47294
1.52567
1.55633
1.54331
1.5406
1.5961
1.48543
1.44665
1.45404
1.57474
2.95116
5.28
5.25961
12.8594
6.84615
8.47752
6.56607
3.30246
3.02501
2.7987
2.35638
1.9137
1.60228
1.46297
1.43198
1.46085
1.51214
1.55033
1.53092
1.49863
1.5189
1.48483
1.44347
1.44978
1.58661
3.37456
4.44996
4.8203
7.34435
2.8336
3.44307
3.73104
2.84394
1.82159
1.49363
1.46047
1.47818
1.50085
1.52227
1.5104
1.48407
1.49451
1.48136
1.44782
1.43359
1.46716
1.85733
2.85257
6.87675
3.50782
5.44198
6.78433
5.08643
3.02908
1.84132
1.50337
1.49251
1.51674
1.53028
1.53788
1.5198
1.4905
1.5019
1.47874
1.45107
1.42223
1.41876
1.77859
2.60706
9.24326
3.48906
7.27945
8.22179
5.16173
2.6913
1.70059
1.48399
1.49466
1.52244
1.53914
1.55459
1.52381
1.49212
1.50127
1.47848
1.45123
1.41719
1.41505
2.02448
2.62688
3.7579
13.0949
10.6288
7.54408
3.73156
1.73693
2.48672
4.50772
4.10232
2.5539
1.70119
1.50316
1.48405
1.49898
1.52167
1.54427
1.52429
1.49581
1.4982
1.47955
1.44936
1.41261
1.42835
2.43949
2.86349
3.40834
7.05618
6.31498
4.59485
2.97952
2.2709
2.41476
2.8347
2.89101
2.62361
2.26729
1.9446
1.71248
1.59874
1.58734
1.57513
1.52854
1.48767
1.48184
1.48121
1.44552
1.41102
1.45569
3.02321
3.15475
2.82819
4.45035
4.6589
3.22613
2.69103
2.7109
2.63557
2.59474
2.77006
2.92774
3.07095
2.81254
2.33931
1.97946
1.86253
1.69368
1.51615
1.44382
1.42287
1.48274
1.44049
1.41248
1.48526
3.55204
3.37282
2.26543
2.0542
2.18748
2.31442
3.11333
3.26086
3.05513
2.4555
2.01088
1.92347
2.09218
2.09564
1.95468
1.91465
1.8428
1.70307
1.53312
1.47289
1.47596
1.47727
1.43733
1.41671
1.52015
4.06463
3.68699
2.32816
1.77901
1.76701
1.92249
2.19884
2.49053
2.8522
2.53161
2.04147
1.90546
1.84371
1.74132
1.72902
1.92365
1.78872
1.69131
1.63171
2.19695
2.45808
1.47618
1.43617
1.41973
1.55831
4.42674
4.09051
2.53064
1.87723
1.7848
1.88455
2.06592
3.10135
5.30913
3.98309
2.57087
2.10706
2.10631
2.21328
2.36683
2.70819
2.92417
3.02296
4.17683
6.7375
6.95384
1.4817
1.44288
1.41233
1.47709
2.36217
4.25696
3.75997
2.77697
2.48909
2.54319
2.94502
4.72786
6.06843
5.86102
5.77375
6.37837
7.38094
8.27475
9.40277
9.73657
9.72429
9.90461
11.7544
11.7602
11.79
1.47844
1.44967
1.39936
1.37807
1.47065
1.88962
2.71371
3.36701
3.40682
3.40315
3.65926
4.61342
5.42881
5.76935
6.53583
7.6345
8.57014
10.6482
13.0823
13.5413
13.5584
13.2124
13.2191
13.2497
13.2569
1.48006
1.44461
1.4132
1.36383
1.35753
1.40619
1.6183
3.42918
3.97287
4.16212
4.16016
4.39598
4.74306
5.02183
5.19729
5.51741
6.16253
8.93741
13.4059
12.7714
13.2349
13.3664
13.505
13.5772
13.4801
1.48128
1.44292
1.41112
1.37698
1.33662
1.33381
1.38777
1.73364
2.71107
3.5256
4.25136
4.88546
5.2285
5.48417
5.44104
5.45269
5.64922
6.54096
9.43897
9.17835
9.66451
10.1847
10.6001
10.6159
10.6257
1.4816
1.44301
1.40927
1.37975
1.3428
1.31993
1.3289
1.36215
1.52664
1.80565
2.5977
3.78241
4.67259
5.31682
5.46347
5.54232
5.6328
5.79819
5.96218
5.99819
5.99813
5.98573
5.99637
6.07782
6.1175
1.47807
1.44975
1.41989
1.40091
1.41406
1.50015
1.66251
1.92368
2.45986
3.66339
5.09227
6.40997
7.61105
8.804
9.77369
10.5286
11.117
11.6644
12.1375
12.5144
12.8379
13.2017
13.2661
13.1814
12.9179
1.47823
1.45188
1.42935
1.40834
1.52019
2.01652
2.58075
2.90938
3.8454
5.50534
7.4438
9.1809
10.6421
12.0821
13.4279
14.6948
15.765
16.5808
17.1677
17.5384
17.7785
17.8703
17.683
16.4835
15.5685
1.47922
1.4538
1.42389
1.42317
1.92044
2.63905
2.40445
2.25774
2.61949
3.35575
4.25307
5.10045
6.01479
7.29192
8.80566
10.0369
10.8142
11.1658
11.3354
11.4033
11.4042
11.387
9.64705
7.46275
7.99765
1.48136
1.45287
1.42612
1.43371
1.8172
2.2717
2.08966
1.94383
1.93978
1.98775
1.9124
1.86905
1.91249
1.91618
1.92818
1.91609
1.86681
1.83092
1.80432
1.80803
1.79493
1.78985
1.77038
1.93294
2.2178
1.48425
1.44884
1.43333
1.45345
1.85642
2.43153
2.54174
3.05557
4.74125
4.01287
2.97241
2.40037
2.21493
1.98196
1.76116
1.59237
1.46955
1.40333
1.37857
1.37387
1.3768
1.37942
1.37705
1.38698
1.41508
1.4854
1.44561
1.44507
1.49801
2.05361
3.16125
3.93054
15.8264
12.4231
8.21624
4.50857
2.88801
2.57827
2.4333
2.06546
1.71852
1.49667
1.40299
1.37384
1.36913
1.37184
1.3751
1.36893
1.34779
1.34139
1.48404
1.44544
1.44211
1.49631
1.95964
2.94923
5.69797
11.0438
2.39159
3.36366
3.22571
2.47519
1.71903
1.43262
1.37762
1.36924
1.36972
1.37153
1.36497
1.34156
1.3305
1.4806
1.44957
1.42982
1.44611
1.73777
2.64564
8.70101
3.98394
5.03824
4.70756
3.34749
2.42125
1.73117
1.43743
1.38049
1.37276
1.37242
1.37307
1.366
1.34245
1.33128
1.47868
1.45161
1.42123
1.42263
1.83957
2.70314
10.2769
3.66352
6.42512
5.14151
3.64726
2.35798
1.6289
1.41321
1.37802
1.37311
1.3741
1.3753
1.36792
1.34473
1.33305
1.47894
1.45086
1.41604
1.42362
2.11203
2.65772
3.62535
12.0057
9.29078
6.21298
3.12606
1.52272
2.76129
4.08778
3.51196
2.24721
1.58069
1.41319
1.38028
1.37134
1.37333
1.37695
1.37079
1.34871
1.33623
1.48065
1.44773
1.41309
1.44213
2.53861
2.79701
2.50152
3.35605
4.19955
3.56913
2.58273
2.18288
2.35356
2.43446
2.15647
1.82944
1.63396
1.5322
1.45453
1.40576
1.39682
1.3928
1.3796
1.35411
1.33962
1.48241
1.44274
1.41366
1.48143
3.10248
3.06495
2.33569
2.46475
2.6999
2.38696
2.11415
2.11353
2.1097
1.99757
1.8644
1.80973
1.81729
1.75515
1.62568
1.52762
1.4975
1.45192
1.39798
1.36513
1.34426
1.48233
1.43781
1.41715
1.52443
3.65373
3.31158
2.15654
1.76875
1.78459
1.88339
2.01865
2.17881
2.16241
1.90081
1.67949
1.62722
1.651
1.63602
1.56147
1.54365
1.53684
1.48371
1.41971
1.44915
1.4853
1.48527
1.43161
1.42277
1.57025
4.21264
3.61963
2.28985
1.68081
1.60655
1.69203
1.78702
1.94562
2.08463
1.89666
1.65627
1.57069
1.53945
1.51316
1.49656
1.54584
1.54283
1.51189
1.57809
2.42259
2.82678
1.47693
1.43513
1.42917
1.60047
4.6569
4.05042
2.47852
1.80978
1.68118
1.72783
1.83638
2.15847
2.82296
2.58695
2.20762
2.14096
2.31623
2.56012
2.83501
3.1754
3.47305
3.68326
5.23028
8.06406
8.27279
1.48229
1.44161
1.41664
1.50456
2.56386
4.34751
3.74621
2.73817
2.43541
2.48131
2.85477
3.83958
5.16307
5.85177
6.40856
7.34845
8.54235
9.63257
10.8172
11.5636
11.8706
12.1471
13.4293
13.3353
13.3319
1.47862
1.44971
1.39601
1.39082
1.50622
1.95453
2.86007
3.39497
3.43529
3.42426
3.57652
4.04168
4.86171
5.66094
6.28632
7.15952
7.95066
9.39135
11.2799
12.368
12.9918
13.2496
13.4388
13.6928
13.8061
1.4791
1.44643
1.41185
1.3674
1.3714
1.44279
1.67133
2.27075
3.16216
3.80131
4.05856
4.30067
4.61971
4.92735
5.17999
5.56019
6.01053
6.76954
8.74774
10.0959
11.1142
11.7712
12.2007
12.6072
12.7027
1.48104
1.44288
1.4139
1.37636
1.34333
1.35116
1.40201
1.54668
1.99398
2.96192
3.88023
4.64776
5.13349
5.40437
5.449
5.59282
5.68376
5.95231
6.51354
7.2091
7.81682
8.4309
8.87817
9.36732
9.48749
1.48168
1.44243
1.4121
1.38148
1.34429
1.33176
1.34645
1.3908
1.51009
1.83241
2.73035
3.8895
4.90921
5.484
5.73151
5.85056
5.84991
5.89515
5.82919
5.74303
5.69155
5.67868
5.69545
5.72472
5.75736
1.47857
1.44821
1.42172
1.39174
1.39603
1.47046
1.62844
1.8898
2.44554
3.72693
5.2549
6.6918
8.02919
9.34528
10.4138
11.1958
11.7324
12.2323
12.6719
13.0383
13.3459
13.6051
13.7361
13.6064
13.3969
1.47827
1.45105
1.42931
1.39898
1.48363
1.89193
2.4231
2.83576
3.88468
5.63679
7.68776
9.6062
11.2683
12.8421
14.2093
15.3542
16.3217
17.0657
17.5921
17.9267
18.1332
18.2122
18.0283
16.7048
15.8851
1.47886
1.45334
1.42263
1.41757
1.85513
2.39338
2.12264
2.04834
2.52217
3.3692
4.44116
5.5329
6.58726
7.8108
9.09798
10.1104
10.8052
11.1409
11.3055
11.3688
11.3862
11.3606
9.64377
7.4858
8.08569
1.48043
1.45307
1.42358
1.4276
1.79189
2.09421
1.82507
1.66708
1.67902
1.78299
1.78682
1.72484
1.70609
1.72987
1.78223
1.79992
1.79605
1.79372
1.77792
1.77663
1.77257
1.76923
1.7576
1.93102
2.22786
1.48209
1.45145
1.42739
1.43734
1.7485
2.06505
2.01895
2.33696
3.19679
2.92416
2.4531
2.04174
1.8048
1.69483
1.59942
1.5045
1.43029
1.38869
1.36982
1.36048
1.35702
1.35634
1.35305
1.36653
1.38987
1.48298
1.44914
1.43349
1.45267
1.73567
2.21122
2.9666
14.1334
9.45143
5.91863
3.72786
2.62739
2.32086
2.14056
1.84985
1.60059
1.45075
1.38775
1.36545
1.35642
1.35264
1.35201
1.34557
1.32968
1.31023
1.48175
1.44933
1.43188
1.44876
1.67744
2.28041
5.3746
16.5185
2.27896
2.22735
2.20142
1.9165
1.57512
1.40703
1.36594
1.35499
1.35136
1.35069
1.34448
1.32648
1.29998
1.47958
1.45088
1.4258
1.42898
1.67379
2.44675
8.34531
6.4966
8.63198
3.48548
2.74936
2.03371
1.5891
1.40846
1.36494
1.35392
1.35205
1.35064
1.34412
1.32644
1.2994
1.47854
1.45163
1.42
1.41972
1.8367
2.6376
9.04396
2.24242
4.11507
3.91072
2.87618
2.0429
1.54851
1.39506
1.36284
1.35344
1.35201
1.35126
1.34549
1.32841
1.30149
1.47926
1.4503
1.41505
1.42493
2.13256
2.63505
3.22041
9.64837
7.36484
4.59577
2.41623
1.62261
3.22057
3.23293
2.59883
1.90275
1.50613
1.39109
1.36362
1.35356
1.35227
1.35295
1.34777
1.33141
1.30558
1.48128
1.44664
1.41309
1.44464
2.53912
2.76101
2.20523
2.34046
2.81355
2.66738
2.20451
2.05862
2.19022
2.15111
1.86933
1.60138
1.46216
1.40971
1.38009
1.36105
1.35701
1.3578
1.3532
1.33708
1.31363
1.48227
1.44165
1.41486
1.4845
3.06574
3.02057
2.12664
1.872
1.8948
1.92624
1.83645
1.77354
1.77687
1.71964
1.6035
1.51465
1.47483
1.44986
1.41458
1.38616
1.3811
1.37589
1.36297
1.3497
1.34011
1.47905
1.4375
1.41984
1.53621
3.65942
3.29833
2.15558
1.6563
1.60718
1.68432
1.71425
1.72128
1.72139
1.64081
1.53664
1.47664
1.45421
1.43834
1.41098
1.39607
1.39871
1.39029
1.37565
1.45692
1.52359
1.48457
1.43247
1.42679
1.58636
4.2813
3.63412
2.30922
1.68552
1.57666
1.62854
1.66142
1.69566
1.71124
1.62659
1.52003
1.46576
1.44448
1.43527
1.42491
1.43246
1.44521
1.44543
1.56842
2.6269
3.13338
1.48531
1.4305
1.42984
1.62261
4.78559
4.08691
2.49643
1.81777
1.67532
1.69473
1.74606
1.84654
2.02655
2.05531
2.07333
2.22732
2.51421
2.8445
3.22114
3.63909
4.0062
4.29416
6.08351
9.09047
9.35086
1.48314
1.44035
1.41828
1.52024
2.63764
4.42952
3.77976
2.74996
2.42809
2.4437
2.74215
3.45384
4.59606
5.66419
6.72678
7.99701
9.33987
10.5495
11.7219
12.6133
13.174
13.6348
14.5809
14.4606
14.4866
1.47921
1.44875
1.39631
1.39624
1.52837
1.97625
2.96732
3.45267
3.47106
3.45436
3.54039
3.88921
4.67144
5.62508
6.45238
7.3579
8.19419
9.24438
10.579
11.7117
12.5435
13.0598
13.4828
13.7998
14.0667
1.47837
1.4479
1.40968
1.369
1.3788
1.45955
1.69251
2.20503
3.04445
3.71706
4.0349
4.28913
4.60079
4.90508
5.23791
5.7099
6.18585
6.71503
7.74313
8.7739
9.6933
10.3924
10.9542
11.3709
11.7769
1.48071
1.44312
1.41504
1.3742
1.34646
1.35887
1.41286
1.55159
1.90855
2.84899
3.78391
4.60742
5.1135
5.42309
5.50602
5.63655
5.75142
5.89399
6.04894
6.41321
6.81356
7.21996
7.57904
7.89456
8.23202
1.48142
1.44258
1.41326
1.38114
1.34227
1.33837
1.35413
1.40377
1.52987
1.87051
2.81989
3.99416
5.0316
5.67411
5.92461
5.95882
5.97039
5.94581
5.67241
5.54245
5.37333
5.36958
5.3463
5.32386
5.32311
1.47885
1.44721
1.4223
1.38563
1.38617
1.45701
1.62373
1.91172
2.53253
3.89335
5.48838
6.98333
8.41279
9.80231
10.9251
11.7223
12.2443
12.7235
13.1435
13.4912
13.7787
14.036
14.1255
13.9654
13.7575
1.47816
1.45061
1.42838
1.39373
1.47037
1.84999
2.38489
2.8788
4.02606
5.82912
7.92632
9.94349
11.7515
13.4328
14.8293
15.8676
16.7883
17.4873
17.973
18.2607
18.4446
18.4774
18.3656
16.8938
16.1522
1.4784
1.45305
1.42115
1.41435
1.8429
2.34995
2.08913
2.03094
2.51558
3.38298
4.5294
5.76787
6.96252
8.21272
9.34807
10.1948
10.7968
11.0999
11.2655
11.3362
11.3507
11.3263
9.61544
7.49952
8.16226
1.47949
1.45308
1.42153
1.42275
1.78277
2.06519
1.78672
1.57718
1.57027
1.66254
1.70894
1.68204
1.66145
1.68879
1.74342
1.77109
1.77598
1.78023
1.77592
1.77385
1.77643
1.77665
1.77211
1.98055
2.29528
1.48022
1.45284
1.42385
1.42708
1.71383
1.96475
1.8185
1.87141
2.17559
2.24597
2.07881
1.83838
1.67097
1.59711
1.53912
1.47546
1.42404
1.39338
1.37705
1.36746
1.36319
1.36271
1.36579
1.40914
1.44038
1.48054
1.45173
1.427
1.43113
1.65311
1.96858
2.34998
6.18148
7.38619
4.75727
3.04872
2.22803
2.00247
1.88076
1.69395
1.52863
1.433
1.39043
1.37248
1.36341
1.3591
1.35803
1.35753
1.36813
1.35849
1.47979
1.45119
1.42685
1.42793
1.6145
2.06184
3.67263
18.7918
13.9836
8.39202
4.03556
2.25346
2.30144
2.33694
2.00543
1.68806
1.48098
1.39772
1.37208
1.36251
1.35844
1.35732
1.35637
1.36386
1.34857
1.4787
1.45135
1.42371
1.4195
1.65897
2.29403
5.36042
18.949
15.4793
8.4491
3.95706
2.18691
2.38756
3.18566
2.44598
1.82796
1.5044
1.39869
1.3708
1.36165
1.3584
1.35733
1.35637
1.36334
1.34749
1.47837
1.45152
1.41867
1.41712
1.83403
2.5098
5.05508
16.8092
12.2209
6.64213
3.30222
2.24035
2.98252
3.30323
2.46208
1.8239
1.4931
1.3938
1.36976
1.36155
1.359
1.35809
1.35789
1.36558
1.34955
1.47944
1.44979
1.41419
1.42513
2.12773
2.57064
2.67772
4.896
4.97322
3.4704
2.29872
2.1965
2.76881
2.60186
2.09704
1.68214
1.46081
1.39039
1.36922
1.36099
1.35905
1.35969
1.36026
1.36853
1.35344
1.4815
1.44577
1.41294
1.44409
2.52052
2.7377
2.08232
1.98024
2.10199
2.1383
1.94747
1.88787
1.97508
1.90798
1.70696
1.52692
1.4303
1.39132
1.37222
1.36181
1.36007
1.36162
1.36301
1.37424
1.36167
1.48158
1.44125
1.41575
1.48472
3.04157
3.00363
2.08444
1.68182
1.6532
1.71261
1.70948
1.66845
1.66026
1.62129
1.54214
1.46795
1.42198
1.39788
1.37975
1.36683
1.36525
1.36724
1.36889
1.39131
1.39073
1.47653
1.43733
1.42187
1.54045
3.67861
3.3181
2.19269
1.63986
1.55647
1.60875
1.63652
1.61828
1.59971
1.55957
1.50083
1.45034
1.419
1.3999
1.38253
1.37112
1.37199
1.37363
1.37834
1.51271
1.60662
1.48493
1.43158
1.43078
1.59489
4.33471
3.67839
2.34771
1.70927
1.5828
1.61425
1.63326
1.62532
1.59924
1.54733
1.48966
1.45126
1.43174
1.42137
1.41438
1.41714
1.42855
1.43848
1.60793
2.89407
3.40805
1.4857
1.43101
1.43243
1.64164
4.87507
4.13315
2.53626
1.84601
1.68888
1.68641
1.70542
1.73184
1.78814
1.87858
2.04037
2.30932
2.66012
3.04302
3.48853
3.971
4.3962
4.73289
6.66467
9.88115
10.2531
1.48368
1.43869
1.42031
1.5375
2.72563
4.53209
3.83304
2.78913
2.44227
2.42949
2.66662
3.28294
4.32301
5.57107
6.9428
8.443
9.91113
11.2308
12.473
13.4299
14.1911
14.6919
15.5065
15.4189
15.4501
1.4799
1.44744
1.39713
1.40246
1.55839
2.0236
3.12882
3.57667
3.57453
3.5403
3.60717
3.94709
4.70225
5.7028
6.69387
7.70093
8.62863
9.54558
10.6082
11.5985
12.4156
13.0021
13.5397
13.8975
14.2931
1.47803
1.44866
1.40812
1.37089
1.38658
1.47584
1.7359
2.31943
3.13975
3.80275
4.12704
4.3739
4.67358
4.97093
5.37064
5.88617
6.41564
6.95814
7.63699
8.34772
9.02687
9.57507
10.1076
10.4178
10.9692
1.48028
1.44386
1.41513
1.37298
1.34922
1.36549
1.42366
1.58476
1.96319
2.93044
3.87506
4.69631
5.20291
5.48748
5.61883
5.72818
5.83672
5.94091
5.99766
6.13981
6.32963
6.53836
6.75186
6.90972
7.24857
1.48132
1.44266
1.4141
1.38041
1.34294
1.34131
1.3592
1.41717
1.55847
1.93649
2.95904
4.16246
5.20089
5.84722
6.08509
6.10264
6.08297
5.95764
5.54697
5.34585
5.22135
5.14555
5.0801
4.99448
4.95761
1.47871
1.44721
1.42137
1.38133
1.38448
1.47137
1.67484
2.02036
2.71607
4.16125
5.81087
7.33209
8.81893
10.2393
11.3491
12.1331
12.6695
13.1486
13.5653
13.9106
14.1848
14.429
14.4889
14.2946
14.0706
1.47791
1.45059
1.4269
1.39102
1.4775
1.89961
2.49076
3.11653
4.37574
6.22847
8.34869
10.4155
12.328
14.0901
15.4989
16.5836
17.4658
18.1297
18.5511
18.8534
18.9493
18.9691
18.7288
17.1065
16.5722
1.47796
1.45298
1.4193
1.41326
1.87765
2.42766
2.2085
2.20211
2.70286
3.55666
4.71279
6.00943
7.3023
8.58801
9.6262
10.3562
10.8505
11.1079
11.2782
11.3536
11.3507
11.3247
9.59569
7.60678
8.3293
1.47876
1.45299
1.41972
1.42055
1.81398
2.13813
1.88252
1.65562
1.63992
1.70105
1.75374
1.74226
1.7449
1.77568
1.82809
1.83898
1.8357
1.83206
1.83746
1.83394
1.8338
1.82745
1.85122
2.14764
2.4633
1.47906
1.45313
1.42164
1.42188
1.72906
2.01209
1.837
1.75055
1.83589
1.97341
1.93992
1.80973
1.7031
1.64524
1.59295
1.53684
1.4907
1.46083
1.44266
1.43111
1.42464
1.42243
1.44998
1.53911
1.57914
1.47908
1.45243
1.42414
1.42146
1.65808
1.97436
2.07049
2.74803
3.77569
3.20406
2.50009
2.07094
1.92018
1.81485
1.68121
1.56285
1.49184
1.45615
1.43764
1.42682
1.42074
1.41852
1.44211
1.50457
1.48456
1.47869
1.45164
1.42465
1.41857
1.62501
2.03319
2.58258
6.40436
7.71553
5.06495
3.05389
2.20676
2.23862
2.19545
1.90273
1.64746
1.51063
1.45738
1.43656
1.42594
1.42071
1.41872
1.44112
1.49958
1.47376
1.47819
1.45148
1.42181
1.41499
1.67949
2.21547
3.09316
9.2625
8.62494
5.43709
3.1133
2.2082
2.40611
2.62445
2.14529
1.73476
1.52677
1.45707
1.43473
1.42504
1.42054
1.41867
1.44144
1.49876
1.47204
1.47831
1.45123
1.41717
1.41594
1.8648
2.41193
2.97133
7.0849
6.81132
4.45745
2.72946
2.23458
2.58228
2.64904
2.14053
1.72991
1.52282
1.45432
1.43351
1.42492
1.421
1.41935
1.4426
1.49998
1.47276
1.47962
1.44917
1.4132
1.42621
2.16762
2.55789
2.32015
2.70126
3.09712
2.65491
2.15059
2.12596
2.35275
2.23299
1.90553
1.64011
1.5029
1.45172
1.4322
1.42417
1.42125
1.42087
1.44496
1.50128
1.47447
1.48127
1.44517
1.41283
1.4455
2.55608
2.76742
2.07431
1.83768
1.86324
1.9336
1.87206
1.85492
1.88466
1.81899
1.6821
1.55936
1.48656
1.45054
1.43201
1.42361
1.42169
1.42232
1.44679
1.50503
1.47985
1.48167
1.44037
1.41621
1.49176
3.10556
3.06026
2.15938
1.70054
1.65688
1.7042
1.7357
1.7171
1.69645
1.65341
1.58873
1.52595
1.48039
1.45197
1.43385
1.42488
1.42385
1.42519
1.45099
1.5201
1.50807
1.47605
1.43735
1.42376
1.55216
3.78297
3.41733
2.30011
1.73247
1.63399
1.66335
1.68996
1.67437
1.64748
1.60818
1.55884
1.51228
1.47763