/*--------------------------------*- C++ -*----------------------------------*\
  =========                 |
  \\      /  F ield         | OpenFOAM: The Open Source CFD Toolbox
   \\    /   O peration     | Website:  https://openfoam.org
    \\  /    A nd           | Version:  6
     \\/     M anipulation  |
\*---------------------------------------------------------------------------*/
FoamFile
{
    version     2.0;
    format      ascii;
    class       volScalarField;
    location    "25";
    object      nut;
}
// * * * * * * * * * * * * * * * * * * * * * * * * * * * * * * * * * * * * * //

dimensions      [0 2 -1 0 0 0 0];

internalField   nonuniform List<scalar> 
230684
(
0.940319
0.905226
0.864103
0.844894
0.405618
0.384358
0.361452
0.832293
0.915614
1.01247
1.09567
1.15711
1.21774
1.28574
1.3267
1.35469
1.3902
1.432
1.47705
1.51373
1.5473
1.57283
1.59029
1.59456
1.5984
0.93836
0.908186
0.432476
0.400168
0.181328
0.172467
0.0905826
0.44796
0.458077
0.47193
0.481327
0.497282
0.532386
0.581852
0.61972
0.653175
0.70331
0.765668
0.806231
0.827859
0.832289
0.838683
0.83981
2.05253
1.89013
0.939609
0.905632
0.434407
0.192071
0.182608
0.175418
0.146063
0.286925
0.261672
0.222846
0.218751
0.22517
0.226846
0.251935
0.27678
0.316453
0.341101
0.346728
0.349474
0.345305
0.342595
0.338382
0.761018
1.57386
1.42383
0.987019
0.435147
0.200578
0.173147
0.153042
0.177651
0.122517
0.248647
0.300641
0.286792
0.246129
0.126691
0.109962
0.0930592
0.0627194
0.23417
0.221301
0.21585
0.226695
0.238282
0.245694
0.244402
0.561522
1.23482
1.13342
0.938706
0.906626
0.430704
0.185685
0.15742
0.171098
0.193801
0.196985
0.262128
0.300009
0.257676
0.1038
0.110474
0.0947005
0.087956
0.227922
0.23568
0.249339
0.260253
0.268128
0.270253
0.268161
0.626368
1.37601
1.22726
0.939213
0.907992
0.432968
0.180765
0.0650212
0.150216
0.134521
0.122242
0.244004
0.247078
0.262262
0.250744
0.23525
0.203254
0.0799435
0.247919
0.252555
0.20904
0.201601
0.221664
0.23459
0.24026
0.577776
1.25298
1.13861
0.939269
0.907709
0.433646
0.18006
0.114225
0.137942
0.124255
0.0981293
0.113836
0.110011
0.106174
0.133332
0.0926891
0.300439
0.211307
0.195412
0.219705
0.23119
0.242031
0.24339
0.242021
0.24027
0.554839
1.24531
1.07881
0.938968
0.905724
0.4343
0.190001
0.161728
0.140871
0.143813
0.226687
0.207438
0.156276
0.132636
0.12784
0.105489
0.414935
0.310283
0.263456
0.239092
0.218926
0.21725
0.221909
0.227193
0.231034
0.554994
1.2069
1.10054
0.938568
0.904877
0.434259
0.191702
0.169539
0.144514
0.149249
0.290895
0.22199
0.161475
0.141599
0.134235
0.421859
0.369147
0.307404
0.268126
0.229658
0.208212
0.201627
0.205432
0.214776
0.219414
0.537929
1.2117
1.10704
0.938222
0.904401
0.434071
0.192274
0.169758
0.145311
0.157902
0.112167
0.336344
0.216596
0.248734
0.117199
0.260919
0.242836
0.22143
0.264569
0.27381
0.271376
0.2632
0.251435
0.241355
0.238512
0.568886
1.27392
1.10963
0.938082
0.904374
0.434148
0.191759
0.151976
0.0499206
0.0648921
0.180875
0.159055
0.128074
0.130301
0.128537
0.0951948
0.189468
0.212635
0.267665
0.302554
0.283313
0.266118
0.253515
0.241642
0.242716
0.574675
1.1709
1.14003
0.938109
0.904389
0.434668
0.193346
0.171985
0.149693
0.101049
0.190748
0.130115
0.116243
0.0942568
0.113992
0.112073
0.0979597
0.0974415
0.119083
0.0995618
0.220266
0.110101
0.10938
0.210275
0.213026
0.479166
1.04833
0.990651
0.938043
0.904236
0.434925
0.194479
0.172559
0.169898
0.19294
0.246
0.147978
0.140104
0.108154
0.056331
0.338542
0.053774
0.0749049
0.104329
0.0811945
0.203199
0.142341
0.105256
0.0964348
0.25614
0.572365
0.497107
0.867456
0.937973
0.904377
0.434908
0.194423
0.16652
0.187411
0.247742
0.272895
0.253114
0.236485
0.228214
0.23041
0.238287
0.218014
0.222674
0.0721495
0.217567
0.220895
0.0982896
0.248248
0.136366
0.113649
0.0792593
0.211336
0.937901
0.937369
0.904302
0.434701
0.193393
0.164453
0.20309
0.279423
0.300413
0.286009
0.276582
0.272229
0.326716
0.124043
0.088699
0.162671
0.244577
0.239525
0.233374
0.224756
0.247
0.23885
0.111015
0.117898
0.251479
1.08727
0.935561
0.907553
0.430197
0.401801
0.361785
0.355062
0.496632
0.589706
0.595775
0.596098
0.293914
0.105592
0.117675
0.0794146
0.17231
0.179615
0.198235
0.662496
0.223541
0.138567
0.116195
0.0945111
0.158985
1.23961
1.22301
0.939029
0.901089
0.854016
0.843141
0.79278
0.765247
0.36941
0.376027
1.03793
0.507657
0.254326
0.21712
0.126418
0.0865207
0.0717889
0.129987
0.138589
0.289721
0.123959
0.228387
0.0934884
0.159088
0.511647
1.60445
1.50542
0.940529
0.897102
0.864944
0.827597
0.808734
0.384356
0.176006
0.16278
0.466871
1.14195
0.541073
0.248784
0.248438
0.18822
0.181959
0.200992
0.265344
0.244722
0.266338
0.380376
0.113468
1.94371
1.82716
1.70054
1.69813
0.939533
0.899352
0.862304
0.833995
0.801572
0.781553
0.383953
0.193453
0.454947
0.917549
0.473779
0.314352
0.208086
0.675228
0.592542
0.523903
0.495721
0.238293
0.272258
0.398517
0.778642
1.80074
1.68385
1.64442
1.69893
0.939866
0.898815
0.862686
0.833566
0.805869
0.779613
0.771504
0.753777
0.722083
0.724525
0.727862
0.366565
0.414532
0.973761
1.00132
1.05666
0.531814
0.249707
0.27355
0.589615
1.19885
1.20237
1.21512
1.23502
1.25589
5.30291
4.43796
3.79586
3.32897
2.59941
2.14234
2.47457
3.61517
4.37316
5.24097
6.2793
7.21875
8.05909
8.84659
9.53424
10.1169
10.6099
10.9851
11.2668
11.34
11.6076
11.5817
11.0211
10.8305
10.4039
5.27277
4.41111
3.32219
2.51403
1.28178
0.480877
0.236826
0.948164
1.6257
2.35652
3.42032
4.86531
6.47419
7.57719
8.66542
9.54796
10.1603
10.4133
10.3435
10.4589
10.6206
10.509
10.6678
10.7893
10.1992
5.22984
4.36669
3.28164
1.99644
1.26839
1.81727
1.82651
1.43817
1.28829
2.20103
2.75504
3.98396
5.96921
7.33313
7.7317
7.78917
7.72924
7.65237
7.59031
7.506
7.14908
6.24737
6.26174
5.3273
3.7902
2.82537
1.45432
1.18679
1.26161
2.21624
2.68358
2.59801
0.531285
1.85798
2.44685
2.38757
2.64378
2.94373
3.26957
3.32844
3.28615
3.27655
3.25976
3.34751
5.17854
4.21133
3.0994
1.75662
0.983014
0.835555
1.4324
2.55242
3.63009
3.88704
3.91655
0.744047
1.06202
1.52018
1.81682
2.1388
2.66761
2.78156
3.03935
3.12349
2.97073
2.81232
5.17206
4.11064
3.08325
1.83819
0.558637
1.41066
2.04198
2.82538
1.69193
0.951937
1.00959
0.901466
1.15041
1.27325
2.04133
2.62539
2.97645
3.04793
3.16205
3.14097
2.80095
5.19695
4.1965
3.16088
1.90687
0.548342
0.0944531
0.283476
0.984347
1.9996
2.52102
2.62108
2.78976
2.94127
2.97911
3.01728
3.12771
3.24353
3.03678
2.89578
5.22572
4.4288
3.11743
1.94326
1.00136
1.02465
0.985124
0.205619
1.92282
3.29594
2.87635
2.50311
2.47152
2.77074
2.98419
2.99042
2.98172
3.12883
3.22159
2.90414
2.92979
5.25018
4.48726
3.24938
2.04967
1.80302
2.94867
4.61998
3.37384
3.7955
3.51796
2.80351
2.36906
2.60334
2.74985
3.02547
3.1477
3.09024
3.17832
2.88438
2.96322
5.26624
4.47905
3.37014
2.08328
1.96732
3.56077
3.78799
3.76936
1.1627
1.60123
1.56987
0.196358
0.557634
1.58533
3.44518
3.53664
3.06158
2.86715
2.88328
2.97944
3.17166
3.15829
3.26256
3.01047
3.04547
5.2797
4.5055
3.40149
2.08289
1.70716
0.413818
1.30554
0.193205
0.442805
1.45312
1.90913
2.43033
2.69997
2.75191
2.70325
2.66764
2.81979
3.08339
3.28753
3.08034
2.95289
5.30052
4.57907
3.44629
2.12372
2.65565
2.22257
0.636594
0.544204
0.152628
0.306742
0.919588
0.865615
0.575639
0.996488
1.92697
2.16903
2.31408
2.32798
5.31785
4.63503
3.3802
2.16595
3.4709
5.04034
1.93266
1.45615
0.357792
1.30307
1.5827
0.276796
0.236033
0.498218
0.869997
0.0458036
0.322781
0.87832
1.56501
1.73606
2.14663
5.34184
4.60257
3.5243
2.21304
3.98197
5.6843
4.66492
3.50888
2.28282
1.71231
1.69997
1.66703
0.378678
0.844261
0.682866
0.197638
1.40579
1.74828
0.8517
0.625844
0.613757
0.972393
2.17809
5.3362
4.66533
3.4625
2.31327
4.4981
5.97908
4.81349
4.15098
3.89311
3.82705
3.51334
3.11944
0.595985
0.651414
1.35522
1.6007
1.99078
2.31745
1.44697
1.03899
0.377343
0.771945
1.31068
4.89667
5.33998
4.67767
3.30472
2.80276
3.22884
6.09671
6.09862
5.02421
4.131
3.74392
3.30163
0.369237
0.697655
1.28699
1.94607
1.60731
0.743545
6.09668
7.01738
5.34357
4.53115
4.12071
3.65162
3.47212
3.66885
3.91943
5.22807
5.09293
4.40283
3.76558
1.71903
0.0792778
0.121106
3.9869
0.840755
1.69534
2.22322
3.94661
6.34644
8.13181
8.61388
5.33802
4.53102
4.06349
3.72834
3.54441
2.74322
2.45477
1.00449
1.22433
1.7793
1.73349
2.43289
1.30329
0.222444
0.480323
0.51821
3.16964
1.59712
1.96898
6.63036
7.37254
7.50931
8.46432
5.34452
4.54776
4.05375
3.70934
3.48165
3.258
2.39352
0.325407
0.863816
1.4605
1.68016
1.48665
1.16019
2.13351
2.27562
2.84047
3.0315
1.79487
3.7787
5.22566
6.06823
6.59346
7.02705
5.34488
4.54974
4.05577
3.71387
3.50568
3.24538
3.04431
2.67665
2.36754
1.86721
1.64618
2.51368
3.83712
4.80996
4.71889
4.88736
4.22094
3.25227
0.680879
1.52988
3.36826
4.16953
4.89615
5.26082
5.60544
6.65534
6.42442
5.98233
5.77327
5.13399
4.75207
4.67581
5.55113
6.59448
7.79181
9.34356
11.0363
12.6224
14.0057
15.1273
15.9396
16.4998
16.8968
17.2367
17.2239
17.4419
17.0825
16.4431
16.4355
15.933
6.66106
6.3977
5.90543
5.40933
3.74209
2.90649
3.20227
3.57967
5.11756
6.7978
8.16424
9.4446
11.3698
12.6737
13.804
14.7971
15.3984
15.5716
15.5744
15.6274
15.778
15.552
15.8046
14.6403
14.5462
6.65468
6.38609
5.89795
5.15523
2.08411
1.37467
1.72338
1.97801
2.80609
3.9234
4.55357
5.56265
6.52736
8.22387
10.2885
11.3197
11.4734
11.3716
11.1308
10.8494
10.6922
10.5768
9.62614
8.56645
8.88847
6.67061
6.40186
5.89801
5.1081
4.43696
1.58319
1.95393
3.11842
4.2954
5.04112
5.09224
1.8364
1.68455
1.97687
3.63922
4.83561
4.61004
4.60186
4.60921
4.65803
4.48657
4.32248
4.1683
4.25536
4.54305
6.67857
6.24936
5.8099
5.00008
4.22683
1.19464
1.46236
3.37961
4.59743
4.12009
4.31369
2.14385
1.41078
1.66485
2.24706
3.73705
3.78203
3.64285
3.56891
3.3913
3.42271
3.41207
3.445
3.52453
3.52562
6.67413
6.2069
5.85359
5.0467
2.78038
1.60955
2.34748
2.25033
2.83625
2.38972
2.24968
2.78864
3.47049
3.30658
3.44626
4.00441
4.07214
3.68711
3.48162
3.49287
3.65
3.59058
6.68803
6.22423
5.88299
4.75225
1.63717
0.305082
1.24295
1.70973
3.37401
3.52343
3.40108
4.11506
4.31627
4.1688
3.95365
3.7641
3.70716
3.70956
3.64737
6.67466
6.35326
5.85916
5.12434
2.40914
1.7877
1.88877
0.217764
2.66872
3.05097
3.15673
2.7147
2.93518
3.99683
4.09347
3.90457
3.75339
3.63263
3.60696
3.63409
3.59741
6.6588
6.40255
5.92473
5.1438
5.36877
6.41084
8.27393
0.304877
3.32806
3.79312
3.31776
2.67567
3.19076
3.98589
3.98338
3.81653
3.68504
3.62738
3.60299
3.66003
3.62255
6.66281
6.41642
5.94342
5.19132
5.90123
6.90697
6.4034
5.387
2.73161
2.27386
1.00493
0.519001
1.04669
3.38327
4.37862
3.74776
3.68485
4.04366
4.05753
3.92564
3.82246
3.76079
3.77365
3.78771
3.72844
6.66947
6.43638
5.93821
5.24897
6.39819
5.34308
4.36605
0.170319
0.140581
0.135029
0.132554
0.328517
0.776968
1.13842
1.69806
1.95054
2.24417
2.54935
2.79213
3.20872
3.51286
3.81338
3.95391
3.93537
3.82893
6.68068
6.44427
5.93451
5.36979
7.27623
6.4317
1.8364
1.10931
0.593482
0.141043
0.105258
0.10988
0.107418
0.107069
0.113423
0.109506
0.246755
1.50852
1.61507
1.26865
1.64522
2.85581
3.56511
3.81566
3.6989
6.69656
6.42338
5.94719
5.47626
7.8912
7.93736
5.44027
3.53096
1.94201
2.10377
0.152558
0.303801
1.78174
2.175
1.49569
0.532398
0.381032
0.770456
1.22001
1.10961
1.39723
2.42498
3.44788
3.9378
3.91379
6.70122
6.40909
5.94822
5.50688
8.12594
8.15707
6.65655
5.65624
4.88498
3.7917
2.11034
1.98914
2.25876
2.69957
2.45806
2.14243
2.52226
2.67297
1.78067
1.05349
1.21968
1.35396
2.09954
4.09142
4.5823
6.69889
6.40711
5.96811
5.63645
8.3179
8.35306
6.86909
6.03982
5.50901
5.1147
4.61422
4.13661
1.66869
2.1224
2.31469
3.11325
3.75582
4.10233
3.89117
2.61407
2.28975
2.15593
4.88535
8.57341
9.15032
6.69841
6.45302
5.93856
5.74931
6.15867
8.36429
8.24196
7.21159
6.41856
5.58528
4.34984
2.70877
1.50224
2.19495
2.78068
3.63856
4.1052
6.55977
7.06007
6.41546
6.40569
8.13786
9.9678
12.238
12.7171
6.68851
6.46186
6.14179
5.80915
5.8073
5.90498
6.5505
7.74756
7.31735
7.19891
6.53754
4.40104
1.7538
2.19787
3.04205
4.14346
6.22188
9.09746
7.78565
7.79212
8.76981
10.7587
11.9822
12.4334
13.126
6.70426
6.42447
6.19311
5.84397
5.696
5.3098
5.31362
3.37809
3.35469
3.71488
3.38359
4.03679
4.43784
4.15984
4.55746
5.56885
7.11265
9.91094
5.62052
6.90218
8.40945
10.0372
11.177
11.6862
12.142
6.70549
6.43157
6.15847
5.90979
5.63922
5.42263
4.67694
0.532202
1.79638
3.16345
3.34116
3.41546
3.82527
3.98104
4.86303
4.83331
5.08239
6.50165
4.81213
6.22588
7.77284
8.27083
9.14863
9.9057
10.3523
6.70621
6.43295
6.15062
5.92028
5.68143
5.36565
5.22446
4.75541
4.24644
3.09788
3.17348
5.3837
7.2082
7.71928
7.87191
8.16304
7.2777
7.08164
7.49162
7.01297
8.00485
7.85886
7.93933
8.47225
8.73496
6.72973
6.7324
6.63913
6.56579
6.58434
6.66772
6.69628
6.73045
8.47782
10.269
11.4984
12.9774
14.7403
16.6281
18.0066
18.8237
19.2838
19.6494
19.8447
19.5119
19.5002
19.498
19.2329
19.1505
18.5704
6.73046
6.74088
6.62651
6.54537
6.65173
6.90181
6.52151
6.76677
8.71519
10.3554
11.575
12.6208
14.0536
15.4329
16.3336
17.1259
17.5599
17.8262
18.101
18.2332
18.2521
17.9939
17.9018
17.019
16.2078
6.73603
6.74174
6.57695
6.52688
7.75131
5.93872
4.7171
4.59309
6.4384
7.69956
8.03649
8.46961
9.21159
10.459
11.94
12.6748
12.7616
12.6354
12.3358
12.0411
11.8975
11.7968
10.6387
9.2108
10.15
6.7471
6.73002
6.58906
6.51219
7.56508
6.49742
5.42223
5.58654
6.46748
6.76391
6.86497
5.90639
4.17226
4.28983
5.71631
6.15923
5.80351
5.53387
5.564
5.49038
5.34266
5.29649
5.08717
5.07741
5.24307
6.76752
6.68427
6.61218
6.51716
7.46033
4.30023
3.6069
4.26477
5.86945
4.57478
4.66419
5.52027
4.19454
3.68408
4.60454
5.81635
5.80047
5.76305
5.91065
5.88069
5.58787
5.29525
5.23708
5.12858
4.6864
6.7693
6.67856
6.64397
6.71751
4.4855
2.18461
2.88711
6.5212
1.55983
2.59583
2.45795
3.08943
4.5332
4.66315
5.00938
5.18312
5.32159
5.67632
6.05415
6.10979
5.72163
5.3281
5.27552
5.17109
4.8505
6.76669
6.67209
6.63851
6.51106
3.39632
1.96489
2.87351
2.51878
0.971514
2.9289
3.78491
3.45469
3.53493
5.41589
6.12443
6.07954
5.84394
5.59207
5.46198
5.32833
4.90616
6.74634
6.71641
6.61631
6.53782
6.85022
4.818
7.31383
0.257748
2.11676
2.30858
2.48964
2.25002
2.77689
5.14421
5.95755
5.81788
5.6243
5.41927
5.382
5.23846
4.87443
6.73307
6.73862
6.58307
6.49
7.50569
8.59514
11.2655
0.330702
2.24821
2.97041
2.73317
2.17584
3.07299
5.4613
5.94255
5.74991
5.55507
5.43413
5.3746
5.28285
4.9096
6.73791
6.73175
6.57627
6.52914
8.0502
8.51839
7.34666
5.43717
2.90957
2.59766
1.55111
0.499579
1.05401
3.82294
4.11545
3.44675
4.14769
5.6611
5.88968
5.8014
5.68424
5.59061
5.54292
5.43481
5.03092
6.74666
6.71766
6.56458
6.58763
8.63609
8.43683
5.1247
2.31515
2.83374
3.01386
3.2305
3.7799
4.1291
4.39611
4.14744
3.68702
3.51364
3.64198
3.84618
4.37892
5.13111
5.55938
5.67194
5.6133
5.17274
6.75325
6.69724
6.57671
6.68975
9.42963
8.75292
6.20784
2.89531
2.30344
2.35383
3.09974
2.85741
2.8363
3.02817
3.04352
2.87674
2.95557
2.97049
2.74984
2.54869
3.19843
4.55118
5.4466
5.57787
5.28296
6.75037
6.68427
6.60662
6.82996
9.8556
8.91929
7.10114
5.89241
4.25581
3.76388
2.74962
2.45313
2.85967
3.21575
3.33837
3.165
2.96647
3.04968
2.84713
2.69897
3.17859
4.40072
5.30205
5.57274
5.5091
6.70104
6.70251
6.63581
6.87493
9.93074
8.9304
7.22329
6.75842
6.73145
6.23517
5.29237
3.86084
4.21314
4.42908
4.22088
4.13263
4.44801
4.63925
4.24952
3.52124
3.57071
4.03608
4.88069
5.908
6.47699
6.71111
6.6891
6.6579
6.85918
10.0094
9.10685
7.35591
7.08335
7.11261
6.9904
6.62045
5.78764
3.96369
3.55086
3.91592
5.35109
6.13659
6.60313
6.70101
6.2636
6.017
6.40634
8.16445
10.9917
11.7167
6.75067
6.69772
6.62233
6.58572
7.73734
9.37284
8.8315
8.34442
8.31545
8.20383
8.45664
6.06052
4.50158
4.54278
5.50553
7.45077
9.34094
10.8637
12.1512
12.4783
12.4571
13.2362
15.9805
15.9725
16.4848
6.74487
6.7185
6.62387
6.59079
6.70723
6.67415
7.56974
8.83244
8.93963
8.78708
8.45446
8.47273
7.8731
7.55135
6.54532
7.16103
9.50393
11.4627
12.7076
13.4657
14.156
14.4258
15.2978
15.7669
16.6899
6.74759
6.70674
6.65589
6.53825
6.51795
6.51933
6.62127
8.24486
7.14936
7.21263
7.19855
7.32599
7.4813
7.59934
7.75065
8.05797
8.42299
10.4276
11.6949
12.2246
13.0062
13.2192
13.7168
14.2162
15.1184
6.74597
6.70944
6.65217
6.56632
6.45206
6.39756
6.44064
4.55393
5.41189
6.21135
6.31988
7.19784
7.85498
8.39993
8.26347
8.0429
8.63015
8.6561
10.6216
10.9278
11.2336
11.7798
12.7369
12.6133
13.1402
6.749
6.70528
6.6536
6.57025
6.48206
6.37459
6.34212
6.22145
5.96701
5.45319
7.06709
8.27163
9.19777
10.1259
10.1359
10.3678
10.6097
10.7876
10.9986
10.9046
10.723
10.594
10.6123
10.8328
10.9696
6.72763
6.75933
6.71165
6.75396
6.85184
7.11666
7.34096
7.68717
8.81413
11.8565
13.132
14.1591
15.848
17.9965
19.3645
19.9403
20.0247
20.1877
20.3171
20.3512
20.3888
20.7413
20.465
20.3715
19.9209
6.73105
6.76304
6.71736
6.76482
7.1527
8.47722
8.39299
8.76636
10.4456
11.9405
13.2642
14.3053
15.2712
16.7204
17.5713
18.2245
18.6195
19.0305
19.2504
19.3324
19.2664
18.9502
19.0821
17.908
17.3663
6.74326
6.75253
6.69987
6.80539
8.4069
8.90448
7.50759
7.38236
8.50884
8.93497
9.16469
9.48419
10.0226
11.0367
12.2016
12.8107
12.9482
12.9071
12.6455
12.4285
12.3282
12.3098
11.0383
9.55449
10.7471
6.75392
6.73973
6.71605
6.81162
8.12393
8.53421
7.44884
7.16233
7.3832
7.44528
7.39575
7.31088
6.92953
6.60347
6.75326
6.61135
6.18578
5.91043
5.6851
5.6373
5.54653
5.55319
5.86821
5.4569
5.60748
6.7642
6.72134
6.7507
6.85112
8.18798
8.16127
6.69518
6.53869
6.11351
4.71459
5.12011
6.33868
6.64794
6.34234
6.64505
6.8629
6.76703
6.72686
6.78521
6.82008
6.79086
6.72579
6.70268
6.40157
6.09326
6.76306
6.72105
6.77664
6.95463
8.11006
6.22614
5.57426
8.48079
2.0645
2.09191
2.34961
3.1752
5.34096
6.07751
5.76302
5.63688
6.11402
6.60216
6.78907
6.85158
6.81081
6.73077
6.69448
6.53627
6.26732
6.76058
6.71831
6.76913
6.94807
7.71834
5.80638
7.28861
3.53441
0.915011
2.59872
3.01904
2.88264
3.37661
5.7461
6.75931
6.84524
6.82334
6.7699
6.73095
6.58018
6.30575
6.74575
6.74328
6.73474
6.82784
7.96022
8.47526
11.7139
0.268728
1.46427
1.41813
1.6433
1.77674
2.57704
5.39332
6.71991
6.80869
6.78453
6.74532
6.71891
6.55206
6.29952
6.73907
6.75439
6.68704
6.79544
8.29951
9.46555
12.7543
0.314024
1.48463
1.78891
2.05265
2.00112
3.00539
5.85942
6.75732
6.80067
6.77778
6.74294
6.72088
6.56827
6.32195
6.75037
6.73338
6.67533
6.81478
8.76205
9.00595
8.15759
5.51297
2.94497
2.37446
1.37072
0.486269
1.6336
3.46661
3.38923
2.99958
4.22651
6.303
6.73156
6.76512
6.78817
6.77895
6.75955
6.62114
6.38446
6.76354
6.70583
6.69093
6.88784
9.38253
8.9216
7.93799
5.53507
4.75753
4.49441
4.65054
5.40802
6.01461
5.94345
5.41353
5.17991
5.37878
5.58587
5.7066
6.01134
6.4672
6.73019
6.78019
6.66763
6.45549
6.76429
6.68568
6.72139
7.08165
10.1151
9.0574
7.4221
6.15813
4.19019
4.66637
5.73186
5.87306
5.44039
5.50808
5.38873
5.03196
4.72128
4.68115
4.58364
4.69151
5.41373
6.281
6.63244
6.67412
6.46324
6.74451
6.68144
6.74741
7.25694
10.4685
9.16749
7.19341
6.76304
6.49914
6.21583
6.17756
5.34948
5.07295
5.29391
5.58222
5.49623
5.36707
5.24742
5.0166
4.96999
5.48965
6.20809
6.56886
6.55707
6.46328
6.82783
6.65897
6.77604
7.27776
10.5806
9.18254
7.27414
6.87514
7.14954
7.32389
7.17426
6.42133
6.22082
6.17665
6.1278
6.20637
6.31581
6.37166
6.25197
6.1465
6.07521
6.27477
6.31847
6.44174
7.41171
6.72359
6.70402
6.80887
7.0972
10.6906
9.38415
7.44614
7.17009
7.44126
7.59294
7.6793
7.99713
6.87239
5.81442
6.41004
7.10454
7.42594
7.60019
7.79722
8.09587
8.24192
8.20837
9.54854
12.4793
13.3722
6.75447
6.70136
6.75519
6.90731
8.60754
9.63342
9.04652
8.57367
8.87274
9.19012
9.68181
10.1376
8.88146
8.88365
9.70378
11.0008
12.4529
13.7361
15.0347
15.7398
16.0649
16.4319
18.5672
18.4063
18.8473
6.75129
6.72561
6.67071
6.80629
6.96605
6.91452
7.87184
9.19005
9.33277
9.61197
9.89513
10.3762
11.0416
11.111
11.2164
11.6915
12.2001
13.7234
15.7505
16.5084
17.3066
17.9574
18.4166
19.0527
19.426
6.7404
6.73895
6.69257
6.69481
6.75516
6.82696
6.98578
8.11846
8.78365
9.39678
9.62701
10.0241
10.3464
10.5085
10.6849
10.925
11.1622
11.6983
13.906
14.4006
15.2852
15.9562
16.4505
17.3449
17.6294
6.73951
6.73318
6.72667
6.66001
6.67688
6.73569
6.83056
6.96142
7.59032
8.56579
9.42219
9.86691
10.6896
11.1819
11.1766
11.2628
11.2872
11.4955
11.938
12.5264
13.0505
13.5543
14.1017
14.5896
14.7968
6.74546
6.72228
6.73573
6.68227
6.63533
6.68951
6.75436
6.82087
7.1676
7.28726
9.86563
10.7465
11.8808
12.3477
12.6592
12.7926
12.8019
12.8243
12.5904
12.4676
12.3217
12.2366
12.2705
12.3186
12.3439
6.7235
6.76554
6.71277
6.74943
6.89641
7.17798
7.46768
7.81544
8.85245
12.5234
13.9922
15.1932
16.5593
18.6433
20.3239
20.9589
20.8539
20.8632
20.9087
20.9329
20.9675
21.0499
21.0336
20.8699
20.6416
6.73129
6.76127
6.72557
6.77262
7.15469
8.41218
8.67329
9.41485
11.0581
12.6075
14.0561
15.2056
16.1359
17.5125
18.4223
18.9041
19.2627
19.624
19.8249
19.7809
19.6965
19.6171
19.6186
18.171
17.9651
6.74382
6.75183
6.69704
6.83601
8.35104
8.87249
8.00129
8.15272
8.8792
9.14381
9.49559
10.0015
10.5553
11.4094
12.3029
12.7367
12.893
12.8975
12.6975
12.5414
12.5097
12.4694
11.2416
9.76756
11.0481
6.75153
6.74471
6.70677
6.83838
8.20602
8.44668
7.42948
7.28101
7.41652
7.61384
7.48448
7.21547
7.13256
6.98296
6.87945
6.54047
6.23369
5.9942
5.75574
5.64415
5.61889
5.69494
5.75229
5.60903
5.78512
6.75767
6.73404
6.73265
6.86054
8.11095
8.50003
7.77269
7.68511
6.069
4.94244
5.6094
6.49201
7.09899
7.23201
7.15825
7.044
6.95313
6.91751
6.91812
6.92677
6.95659
6.96721
6.97158
6.83459
6.65522
6.75809
6.72782
6.76919
6.89642
8.02939
8.51669
7.50372
7.79609
1.82245
1.93015
2.2874
3.27094
4.93154
5.70709
5.69482
5.84879
6.40844
6.80683
6.90299
6.92911
6.96373
6.97519
6.96584
6.98389
6.89741
6.75029
6.73946
6.75563
6.87951
7.88913
8.59617
9.81641
4.34982
0.547511
0.921864
1.72382
2.43592
3.7841
6.1052
6.8524
6.92643
6.97071
6.97565
6.97081
6.9815
6.91023
6.73983
6.75579
6.71432
6.83402
7.98645
9.32877
12.9888
0.377144
1.82973
1.92779
2.47067
2.39727
3.35999
5.88435
6.83236
6.92712
6.96699
6.97539
6.96673
6.97922
6.90723
6.74005
6.7551
6.68279
6.83196
8.43625
9.53585
12.7265
0.248362
0.862869
2.56013
2.78883
2.72551
3.89503
6.21551
6.86456
6.93332
6.96791
6.97644
6.97114
6.98514
6.91763
6.75606
6.72576
6.67507
6.85963
9.00619
9.11885
8.85347
5.1553
2.9732
2.20375
1.16154
0.572699
2.35081
3.04855
3.09948
3.31575
4.9011
6.56729
6.88419
6.92416
6.97822
6.98089
6.97697
6.99925
6.94542
6.77
6.69538
6.70083
6.93645
9.56127
8.98386
7.71857
7.40207
6.26258
5.15908
5.43655
6.02415
6.58059
6.26213
5.82875
5.96552
6.4508
6.67608
6.70774
6.76851
6.89675
6.97537
6.99021
7.01537
6.98311
6.76112
6.67925
6.73917
7.12908
10.172
9.08563
7.29966
7.11358
6.83328
6.8878
7.13746
7.11645
7.10408
7.0448
6.85421
6.64325
6.50683
6.45049
6.38177
6.43381
6.69992
6.90108
6.9646
7.03934
7.00941
6.71464
6.68464
6.77151
7.33056
10.6151
9.23879
7.1361
6.84939
7.07691
7.30708
7.26964
7.15403
6.93809
6.88461
6.84652
6.78735
6.7174
6.66034
6.56678
6.56301
6.74562
6.89952
6.98244
6.88495
6.82996
6.81695
6.67543
6.80402
7.29701
10.8109
9.31868
7.31281
6.83696
7.19264
7.41058
7.41701
7.37915
7.23476
7.08345
6.96271
6.95792
6.96948
6.96301
6.90995
6.927
6.93098
6.92157
6.59963
6.6496
7.83779
6.83036
6.67258
6.75463
7.13974
10.9271
9.49365
7.4926
7.18856
7.44569
7.57649
7.68413
7.93396
8.08345
7.71484
7.69029
7.70548
7.76201
7.88758
8.16913
8.58391
8.79526
8.74351
10.2752
13.4395
14.5285
6.76087
6.69429
6.76784
6.97418
8.59726
9.8404
9.11365
8.63249
8.96422
9.33515
9.95449
10.7336
11.2701
11.7103
12.4951
13.4967
14.5432
15.4548
16.4333
17.1783
17.5993
18.0944
20.0993
19.7912
20.4436
6.75841
6.71026
6.71586
6.80932
7.01324
6.79483
8.07045
9.33519
9.47548
9.82159
10.3238
11.0538
12.4649
13.1912
13.761
14.4371
15.0163
16.0336
17.3941
18.4601
19.2861
19.9887
20.4632
20.9134
21.2774
6.73586
6.74956
6.68047
6.72037
6.81279
6.88429
6.9424
7.72618
9.02921
10.0505
10.6264
11.3486
11.9372
12.4463
12.9057
13.3471
13.6539
14.2067
15.2598
16.1024
16.8936
17.5772
18.1118
18.6942
19.22
6.73531
6.73884
6.73277
6.65955
6.72891
6.82204
6.92506
7.05829
7.98368
9.5296
10.7234
11.7328
12.479
13.0985
13.1043
13.2943
13.408
13.509
13.4675
13.8845
14.3203
14.6827
15.0198
15.3063
15.6643
6.74256
6.72462
6.75158
6.68421
6.65017
6.78686
6.85746
7.0195
7.50533
8.50208
11.0272
12.1864
13.5509
14.204
14.7045
14.3618
14.4447
14.4254
13.6501
13.7738
13.3448
13.4795
13.3684
13.2668
13.1984
6.72132
6.76758
6.71315
6.72367
6.88947
7.16986
7.49198
7.86758
9.30119
12.9426
14.5072
15.7603
17.2298
19.3171
21.0347
21.617
21.4103
21.3263
21.3055
21.2903
21.3024
21.4218
21.3331
21.1426
20.9753
6.73151
6.75956
6.72531
6.75855
7.1279
8.34882
8.68153
9.72544
11.4968
13.0984
14.5605
15.7739
16.7459
18.1714
19.0788
19.3384
19.7035
20.0188
20.0748
19.964
19.9163
19.811
20.0114
18.292
18.2907
6.743
6.75152
6.69147
6.83321
8.33433
8.83003
7.98447
8.25397
8.96923
9.25631
9.68201
10.3063
10.9339
11.7725
12.4435
12.7037
12.8556
12.8558
12.6975
12.6065
12.5947
12.5659
11.3337
9.88098
11.2374
6.74671
6.75115
6.69353
6.83278
8.21056
8.44383
7.32466
7.05521
7.22413
7.537
7.42518
7.22193
7.02816
6.89043
6.79002
6.53781
6.32154
6.02053
5.84617
5.69914
5.69931
5.7229
5.91747
5.77034
5.98523
6.74695
6.75264
6.70124
6.83786
8.05354
8.32419
7.57394
7.58806
6.87812
6.1446
6.52803
6.9274
7.14335
7.24032
7.17641
7.06774
6.99523
6.96616
6.96018
6.9628
6.98584
7.0042
7.02916
6.99582
6.88765
6.74481
6.75326
6.7177
6.84047
7.83112
8.31866
8.47119
6.94359
3.30721
3.04342
3.36758
4.43163
5.73467
6.19488
6.23922
6.40387
6.72817
6.90639
6.94706
6.96261
6.99236
7.00958
7.02299
7.14333
7.14938
6.73855
6.75951
6.71594
6.82932
7.73925
8.55365
8.49696
6.56753
2.64885
2.63839
2.14118
2.15331
3.30651
4.03027
3.96021
4.17812
5.3616
6.61522
6.92009
6.95962
6.9912
7.00898
7.01889
7.14916
7.14708
6.73501
6.7629
6.6987
6.81645
7.96375
9.02921
10.2464
5.07684
2.88891
2.70182
2.0807
1.92341
2.99703
5.11091
4.61902
4.28695
5.15876
6.52696
6.90843
6.96314
6.99634
7.00964
7.02066
7.14943
7.14372
6.7406
6.75456
6.67465
6.82965
8.43151
9.26904
10.5787
3.62261
2.90937
2.44251
1.92271
2.27056
4.0717
5.40097
4.74119
4.50281
5.48487
6.64615
6.92306
6.96629
7.0003
7.0133
7.02324
7.15317
7.14888
6.75877
6.72091
6.67448
6.86546
8.99413
9.01734
8.5767
4.87518
3.29136
2.87909
2.94774
3.69311
5.02271
5.03782
4.66701
4.91613
6.04644
6.79913
6.93911
6.97419
7.01137
7.01388
7.0283
7.15821
7.16479
6.77043
6.69095
6.70209
6.93259
9.53575
8.98953
7.45832
7.3573
6.80205
6.03219
6.33666
6.64577
7.14085
6.79072
6.46836
6.55378
6.81384
6.92282
6.93888
6.9532
7.00592
7.01976
7.03529
7.17045
7.19375
6.7519
6.68049
6.74486
7.11471
10.1576
9.09475
7.11508
6.9666
7.23004
7.46778
7.412
7.36916
7.35941
7.30733
7.1369
7.00788
6.95658
6.94141
6.9186
6.91969
6.98758
7.01826
7.04239
7.20339
7.23276
6.69165
6.68919
6.7829
7.32827
10.6951
9.31938
7.22685
6.75342
7.13063
7.38995
7.37789
7.33679
7.30598
7.22198
7.10883
7.03234
6.99919
6.98004
6.95145
6.95201
7.00369
7.02485
7.07812
7.03542
7.00451
6.83433
6.67111
6.81883
7.30431
10.8964
9.39645
7.36567
6.86295
7.21334
7.39865
7.41008
7.39239
7.33098
7.21517
7.11559
7.07695
7.05771
7.04208
7.02212
7.02974
7.02925
6.9915
6.70252
7.18121
8.07696
6.84143
6.67725
6.75816
7.18869
11.0522
9.56402
7.55025
7.23317
7.47015
7.56002
7.60864
7.70418
7.86777
7.94853
7.95116
7.92274
7.95279
8.07377
8.40111
8.84812
9.07654
9.0647
10.7272
14.1476
15.4116
6.76079
6.68887
6.77308
7.03661
8.62711
10.0262
9.24534
8.75526
9.05314
9.40237
10.0592
10.8336
11.8301
12.8043
13.858
14.9373
15.868
16.6456
17.4847
18.0551
18.6638
19.0059
21.053
20.8106
21.454
6.76139
6.7033
6.7241
6.83
7.04725
6.82998
8.42439
9.60031
9.58866
10.0142
10.5673
11.4591
13.003
14.112
15.179
16.2044
16.9647
17.7655
18.8247
19.8596
20.5577
21.2723
21.698
22.0611
22.4383
6.73556
6.75097
6.67476
6.73091
6.83578
6.86891
6.94537
7.93824
9.05482
10.3914
11.1032
11.9055
12.6871
13.4512
14.1496
14.768
15.4639
16.1139
16.761
17.4939
18.0774
18.645
19.1159
19.4659
20.0252
6.73312
6.74286
6.72794
6.6578
6.74721
6.84905
6.93209
7.18524
8.00947
9.68051
11.1423
12.4681
13.5225
14.1883
14.5203
14.8313
15.0549
15.2048
15.0554
15.1264
15.2882
15.5116
15.6008
15.7744
16.0762
6.74134
6.72533
6.7565
6.67805
6.65759
6.80433
6.88473
7.0577
7.61337
8.83221
11.3174
12.825
14.367
15.3013
15.6121
15.6266
15.499
15.414
14.2606
14.3872
14.3617
14.087
13.9156
13.8785
13.6068
6.72178
6.76675
6.70716
6.71912
6.8917
7.19137
7.53018
7.90867
9.41651
13.1268
14.7881
16.032
17.8491
20.0185
21.412
21.7834
21.5431
21.4147
21.3819
21.3735
21.3736
21.4738
21.3588
21.1611
21.0383
6.73231
6.75757
6.71758
6.75415
7.1367
8.46179
8.88182
10.1677
11.9618
13.5927
15.0036
16.1903
17.1912
18.6693
19.4981
19.864
20.1361
20.019
20.2338
20.1116
20.0386
20.0095
19.8598
17.9915
18.6153
6.74309
6.74965
6.6857
6.8324
8.43785
8.97751
8.27658
8.6216
9.33152
9.6102
9.99914
10.5889
11.2373
12.0877
12.5988
12.7372
12.8137
12.7822
12.7022
12.6422
12.615
12.6139
11.3289
9.96268
11.4166
6.74442
6.75196
6.68612
6.83651
8.35054
8.61274
7.55065
7.19144
7.28323
7.52617
7.45316
7.20345
7.12004
6.94506
6.89419
6.53928
6.39863
6.08179
5.98973
5.89184
5.86015
5.92166
6.00889
6.11365
6.31699
6.74093
6.75963
6.6889
6.8342
8.12794
8.42522
7.55409
7.42526
7.65839
7.6145
7.44377
7.38119
7.31268
7.28985
7.23801
7.15453
7.09196
7.06445
7.05597
7.05379
7.05941
7.06488
7.13465
7.05408
7.07495
6.73682
6.76369
6.69837
6.82003
7.88652
8.3444
8.12569
8.42172
6.01664
5.20667
5.65378
6.48987
7.07931
7.12155
7.01981
6.97557
7.01488
7.04127
7.05077
7.05521
7.06463
7.0727
7.12903
7.24012
7.25491
6.73341
6.76506
6.70249
6.80827
7.80579
8.48285
8.67213
8.10103
5.388
4.4062
4.19004
5.33433
6.43061
6.69671
6.32433
6.26718
6.66467
6.96982
7.04311
7.05603
7.06446
7.07272
7.12534
7.2211
7.25809
6.73467
6.76222
6.68856
6.80884
8.03755
8.82249
8.67649
9.09934
5.6421
4.54387
4.06833
5.28034
6.70752
7.23326
6.54625
6.23728
6.57448
6.93946
7.03599
7.05536
7.06568
7.07175
7.12601
7.21794
7.25493
6.74427
6.74738
6.66883
6.82679
8.53348
9.02799
9.02346
6.35743
4.75811
4.06611
4.00478
5.52648
7.09558
7.29354
6.57522
6.3188
6.6521
6.95983
7.04036
7.05807
7.06991
7.07254
7.12797
7.2187
7.25616
6.76127
6.71485
6.67502
6.87323
9.13324
9.06301
8.15773
7.36492
5.48084
5.00205
5.51624
6.39251
7.24642
6.97576
6.53931
6.51969
6.82675
7.00466
7.0466
7.06272
7.07471
7.07637
7.13124
7.22194
7.26411
6.76642
6.68956
6.71239
6.93761
9.63224