/*--------------------------------*- C++ -*----------------------------------*\
  =========                 |
  \\      /  F ield         | OpenFOAM: The Open Source CFD Toolbox
   \\    /   O peration     | Website:  https://openfoam.org
    \\  /    A nd           | Version:  6
     \\/     M anipulation  |
\*---------------------------------------------------------------------------*/
FoamFile
{
    version     2.0;
    format      ascii;
    class       volScalarField;
    location    "25";
    object      p;
}
// * * * * * * * * * * * * * * * * * * * * * * * * * * * * * * * * * * * * * //

dimensions      [0 2 -2 0 0 0 0];

internalField   nonuniform List<scalar> 
230684
(
17.6531
17.0891
15.9983
13.8172
7.7429
-3.53976
-8.28953
-2.94608
-3.01058
-5.36575
-7.62524
-9.0937
-8.58604
-6.47924
-4.64846
-4.52023
-5.36413
-6.07837
-6.0934
-5.43416
-4.30598
-2.96692
-1.68496
-1.29223
-0.412833
19.082
18.9193
18.319
18.7997
10.924
-6.17068
-19.848
2.48904
1.62843
-2.1802
-6.33938
-10.9263
-12.2786
-9.56006
-5.67115
-4.82622
-5.44133
-5.93376
-5.75047
-4.9995
-3.93746
-2.71356
-1.41945
-0.87467
-0.208275
21.2609
21.4248
21.9377
26.6475
43.5525
-28.7506
-24.7927
-4.67726
2.54499
-1.24498
-5.25767
-19.6044
-21.5193
-17.0349
-6.53697
-3.38089
-4.52435
-3.21784
-1.94431
-1.16282
-0.736838
-0.543667
-0.374193
-0.400095
-0.12647
23.8133
23.5607
25.4067
17.791
33.6503
-39.6695
-27.6939
-5.99561
2.47664
0.924105
16.0133
-63.1542
-42.1801
-24.6324
-11.3912
-1.14488
-3.61964
-1.16641
1.61998
1.44031
1.00001
0.407009
-0.357523
-0.732528
-0.427857
26.6555
27.358
29.2985
30.3936
18.627
-25.5683
-20.9934
-20.9259
-8.62268
-6.41877
18.8791
-101.511
-47.4709
-37.4368
-9.0738
-0.203557
-0.906315
0.44814
2.33577
2.21172
1.78915
0.763048
-0.342432
-0.765264
-0.511496
29.1217
30.3816
34.261
43.8091
50.8335
-10.9341
-10.4369
-19.2136
-26.6315
-23.7627
-8.89905
-35.7077
-36.3349
-10.9537
-18.0747
0.791134
-0.576665
3.91868
4.89263
3.09591
2.93283
1.91149
0.563803
-0.486973
-0.329556
30.1052
31.1326
35.8133
48.9922
58.9379
16.8498
10.4469
33.1544
-41.5884
-37.933
3.40127
-26.9679
-15.3853
-17.2623
-2.03248
0.713962
1.67413
5.02069
4.13055
4.39954
4.13627
2.84717
1.1373
-0.150326
-0.175064
29.9104
30.3223
32.966
38.1908
37.0364
41.9943
58.1169
-1.02632
-64.6397
-69.4997
28.7723
-1.18331
-1.93714
-7.01901
0.158835
2.23461
3.73877
5.1138
4.72783
4.74112
4.55244
3.57167
1.46961
-0.119988
-0.195452
29.5491
29.673
31.0965
33.4107
35.6587
42.4375
57.9619
-128.722
-64.206
-65.2601
11.2026
1.99394
-25.4769
-3.86118
4.40728
5.20477
5.72446
7.00211
6.19337
6.05147
5.33311
3.93895
1.65666
-0.0681511
-0.151229
29.3631
29.3729
30.2421
31.9931
34.5412
38.6342
41.5009
-23.7293
-63.2849
-39.8993
-24.1055
-17.3543
-23.2145
-3.27618
2.13801
2.75371
4.81556
7.72951
8.21012
8.00217
6.40063
4.46037
1.75602
-0.0430629
-0.162094
29.3947
29.3099
29.9251
32.3983
44.2788
33.7863
59.111
-36.6943
-34.1605
-17.0577
-22.9851
-23.4065
-17.8812
-5.46613
-1.85235
-2.06421
2.70362
9.95025
10.9657
9.07993
8.49987
6.38096
2.26397
0.24895
-0.0760565
29.7066
29.457
29.4353
30.089
31.6
43.4252
9.07446
33.6475
-16.3909
11.4881
-16.6726
-24.7151
4.56295
-3.11631
-15.8808
-2.06046
-7.24199
14.6328
13.2254
6.83865
7.0968
11.9537
3.85221
0.284315
0.0224174
30.5158
30.1927
29.5801
28.6484
27.0943
26.983
23.955
29.7986
2.67102
6.89078
-2.31434
-13.8357
0.204762
15.1564
-3.74247
25.5051
-4.49737
19.7239
8.75895
3.81265
7.99108
8.41508
3.55799
2.13386
0.349486
31.8429
31.5414
30.8238
29.4981
27.5548
28.1048
26.597
19.2873
16.7036
15.9749
20.7738
14.0972
-9.24708
-4.6233
-1.49602
-16.8286
16.8801
22.9675
26.931
-0.319358
-3.9673
0.78292
5.29049
4.11875
0.255595
33.4192
33.2392
32.8539
32.1528
31.34
32.527
32.6324
28.0556
27.2652
31.5437
51.2659
87.912
-31.6234
-25.5502
7.10723
10.0734
11.4716
20.8534
11.8284
0.0895088
0.437185
3.41662
4.60713
2.33898
0.500875
34.8127
34.771
34.8043
35.612
37.5588
39.3516
37.8845
34.8447
36.3568
41.8338
60.1288
93.9501
-21.932
-4.88126
20.4004
3.78066
20.3634
23.1041
16.7324
-10.451
-4.28803
9.95093
-2.13857
2.10307
0.497
35.7519
35.7977
36.3908
37.3415
38.3937
38.6551
37.4461
31.3821
31.7373
35.9049
45.0511
80.1753
-23.4515
-0.479569
13.154
4.86673
29.6345
24.7259
0.0403508
-6.17124
0.474914
6.75237
3.13777
3.09722
1.63933
36.2215
36.2068
36.5394
37.1166
37.9026
39.1366
40.1381
25.2778
36.1852
30.4862
30.4732
22.6503
-8.68739
-5.09072
19.9052
6.36682
1.66388
56.3065
-45.3079
-21.8135
1.42898
8.10885
5.0925
3.02448
2.10321
36.4072
36.33
36.4454
36.6928
37.0191
37.4957
39.7585
11.8966
40.037
32.4628
35.3957
56.79
-19.4874
32.4927
23.0485
25.7069
39.8282
66.7228
-59.1797
-21.8689
5.83144
5.85183
5.42232
4.10678
2.62131
36.4467
36.3206
36.2978
36.2877
36.1262
35.6074
34.9707
31.0084
29.7078
27.4329
23.2929
19.4708
14.3858
24.5904
24.011
22.1596
23.8708
21.7343
-18.4255
-5.86086
6.0466
7.08776
5.4867
3.65119
1.53593
17.39
16.8809
15.6319
12.9918
7.66592
-2.56124
-6.56193
-2.43466
-3.97909
-6.87643
-9.26893
-10.3427
-9.21636
-6.93863
-5.26957
-5.21583
-5.92888
-6.39825
-6.21588
-5.39512
-4.16667
-2.81552
-1.56527
-1.01564
-0.380307
18.7077
18.5554
17.8383
17.6579
10.9966
-3.29519
-43.0995
0.334698
-0.372575
-4.2128
-8.11013
-11.7375
-12.2027
-9.30443
-5.85675
-5.08829
-5.50198
-5.91158
-5.71242
-4.93673
-3.91476
-2.83243
-1.69997
-0.492503
0.0687353
20.7542
20.8967
21.2253
24.8261
50.0751
-6.64619
1.36399
-2.35347
-7.36011
-18.5973
-20.8912
-15.6098
-6.6588
-5.05085
-5.10643
-3.70165
-2.31836
-1.08251
-0.656252
-0.602438
-0.282416
-0.020473
0.283046
23.2046
22.9407
24.945
20.9985
34.8206
-7.86688
-2.7837
-2.62568
11.8481
-30.3989
-7.02196
-3.45979
-3.93631
-1.41864
0.570807
1.15945
0.818014
0.243937
-0.434516
-0.36484
-0.127745
25.9059
26.6167
28.0243
28.3253
16.7318
-25.3594
-19.5185
-15.6895
-14.5506
-11.4417
7.1371
-16.9834
-1.6907
-1.6142
0.194144
1.80761
2.01282
1.62818
0.842782
-0.301818
-0.38985
-0.166423
28.2754
29.5783
32.9319
41.4912
58.337
-51.469
-30.0491
-13.0119
-31.3668
-30.3701
-11.4497
-1.84492
-0.173477
2.71239
3.33141
3.16589
2.80798
1.76585
0.464362
-0.189974
-0.109533
29.3508
30.4844
34.6074
46.6679
73.8667
4.93854
-15.4211
-14.5154
-2.35225
-0.310062
1.67104
3.42681
3.76742
4.34515
3.81359
2.67093
0.960642
0.0413935
-0.0358292
29.3527
29.923
32.4077
37.0207
35.2611
42.6998
59.5488
72.0866
-20.2555
-11.6786
-0.450996
2.39092
3.49213
4.15454
4.41011
4.80192
4.51705
3.47448
1.20189
0.135623
-0.00976334
29.121
29.3892
30.8193
32.8689
34.7801
43.5943
57.9856
-30.9061
-7.1388
3.57863
4.56679
5.44997
6.06291
5.91642
6.05425
5.34433
3.77214
1.38263
0.185135
0.0127537
28.9998
29.1161
29.9944
31.4698
33.3233
39.3675
37.5957
-46.5846
-64.6864
-32.7271
-23.6458
-23.1058
-33.9394
-2.80921
1.57941
2.30426
4.79118
7.30096
8.00748
7.63758
6.20227
4.32032
1.46257
0.214158
-0.00380886
29.0823
29.074
29.639
31.4108
39.6353
34.0639
67.2321
-23.7767
-18.4961
-7.49543
-2.08057
-2.06552
2.21839
9.45577
10.6532
9.09853
8.57152
6.00968
1.80417
0.283093
0.00763367
29.4615
29.2741
29.2296
29.4722
29.5331
35.0352
15.7161
20.466
-30.0743
-15.4208
14.3688
15.068
8.7264
7.91623
9.74137
2.7024
0.586155
0.257979
30.3273
30.0694
29.4697
28.4071
26.2928
26.8718
22.5663
38.7349
-27.2962
1.69903
16.1059
-0.675791
16.3161
-3.47092
16.5839
-1.94354
7.13431
7.98801
2.89858
0.619182
0.493432
31.6894
31.4809
30.77
29.4169
27.1269
28.6907
25.4584
20.0475
16.9366
16.3831
15.3608
5.93417
-10.0158
1.24621
0.324245
-17.0234
14.3118
20.6314
41.4668
-3.68559
4.42372
1.86795
0.816123
33.2928
33.247
32.8535
32.1922
30.7907
33.0343
31.5153
27.9887
27.0768
29.9973
43.8168
95.2334
-6.80709
5.59565
9.76038
12.2251
17.7443
11.4347
1.26688
2.1935
5.17934
4.8477
1.29893
0.844752
34.6981
34.7902
34.7516
35.7702
38.4811
39.7466
37.2018
34.2631
35.012
38.9564
54.4912
102.931
-2.96182
19.1951
21.4681
21.5445
-2.62469
2.56722
0.920449
35.6395
35.8015
36.4693
37.5309
38.6669
38.4735
37.1003
30.6466
30.9415
33.4396
41.3942
75.3755
1.15023
1.09206
28.9482
-7.62203
-7.98466
1.96258
4.95577
3.16431
2.75314
1.43162
36.1191
36.2007
36.5522
37.0917
37.6704
38.6498
39.9792
23.3991
36.839
29.8229
28.2222
23.7
-4.99709
-17.3229
20.5012
-1.92596
73.08
-22.7575
-1.4827
8.32655
5.39712
2.95878
1.69537
36.3143
36.3226
36.4502
36.6644
36.8885
37.0957
39.5456
-2.17457
45.6038
31.1833
32.4693
67.2989
30.0414
24.0002
26.444
36.8832
95.193
-24.238
6.77273
7.46468
5.78207
3.68419
1.84485
36.3582
36.3175
36.311
36.2854
36.1098
35.5218
34.7015
31.0106
29.9587
27.5491
23.0374
19.8379
16.641
23.8897
23.5639
20.8592
21.6535
22.7433
-10.4889
-4.72311
6.51841
7.52197
5.52174
3.5342
1.12351
17.0056
16.4714
14.954
11.8665
7.13145
-0.785508
-4.21055
-2.95655
-5.33572
-8.45962
-10.5909
-10.8362
-9.0139
-6.70032
-5.25377
-5.23095
-5.77647
-6.069
-5.83466
-4.98803
-3.75385
-2.49431
-1.41472
-0.885777
-0.395835
18.187
17.9189
16.8954
14.9587
6.61185
-3.53055
-11.1533
-3.44614
-2.69295
-6.05858
-9.16117
-11.6586
-11.3447
-8.65758
-6.02538
-5.41353
-5.71401
-6.00312
-5.66199
-4.69504
-3.5957
-2.64081
-1.6409
-0.628269
0.110127
20.0669
20.0201
19.7493
19.9188
13.5393
-19.8175
-11.5504
-6.18224
-1.15073
-4.57367
-8.56787
-16.4662
-18.2257
-13.823
-8.12886
-6.41338
-5.57373
-4.05625
-2.3583
-0.78472
-0.169084
-0.348162
-0.481181
-0.165277
0.297941
22.3801
22.5578
22.4707
20.665
16.3877
-26.9818
-16.4246
-9.3941
-7.05446
-6.87277
-3.60971
-34.5923
-25.4559
-19.7976
-8.27073
-5.62097
-4.24579
-1.79934
0.286991
1.32056
1.17251
0.274084
-0.605004
-0.357484
-0.100849
24.9093
25.3554
25.9443
24.7541
13.275
-14.3755
-11.2304
-14.5948
-21.1703
-17.2406
-6.64748
-32.2034
-30.7083
-17.3718
-9.29005
-4.62034
-2.58578
-0.24366
1.52601
2.0683
1.82022
0.812367
-0.312303
-0.345458
-0.1593
27.1889
28.1649
30.4856
35.0462
38.1591
-83.6813
-44.5235
-18.9061
-25.5799
-26.2954
-13.1694
-8.77923
-3.77502
-1.02479
1.30374
2.97934
3.304
2.87298
1.74205
0.282831
-0.193946
-0.136125
28.3752
29.2911
32.3642
39.397
41.885
14.7268
-26.9616
-14.6295
-3.28584
-0.663853
0.885692
2.62097
4.04395
4.36986
3.92757
2.60934
0.631948
-0.035166
-0.0841817
28.6039
29.1274
31.1903
34.1498
32.6053
41.0522
58.3314
70.8556
-32.775
-11.3546
2.56834
3.46935
3.2709
3.6544
4.58896
4.96954
4.63366
3.25483
0.828264
0.0717575
-0.0508867
28.5385
28.8132
30.0884
31.5203
33.5875
42.819
54.6059
-35.5196
-38.4436
-5.31271
5.07802
4.98433
4.84673
5.32502
5.80669
6.0692
5.35812
3.52659
0.976075
0.103136
-0.0444383
28.516
28.6238
29.3753
30.2213
31.9593
36.5859
28.0303
-52.616
-52.7153
-26.2384
-23.2468
-25.8639
-31.7961
-3.32172
1.1024
2.91739
4.82271
6.88929
7.71268
7.47702
6.24059
4.05977
1.01746
0.0986988
-0.0635682
28.6775
28.6406
29.0037
29.5127
31.0263
32.935
39.4976
-35.0612
-21.8251
-16.925
-16.6168
-23.5315
-15.5036
-4.56047
-0.3358
0.558195
3.48187
8.69228
9.75251
8.93557
7.77286
5.15388
1.17497
0.120998
-0.0567965
29.1519
28.963
28.7668
28.1824
27.7294
27.0001
15.6835
0.989035
-11.6265
-3.78728
-11.5202
-16.0954
-3.55047
0.688473
1.74735
1.90091
-11.4248
11.4413
10.4001
7.28894
9.08633
6.86359
1.58625
0.313162
0.0682557
30.1123
29.8915
29.2168
27.7512
26.324
25.682
20.5478
12.5414
8.3841
26.8464
-14.1624
-24.6469
3.57934
6.7839
3.82363
7.88209
6.92389
15.0555
4.81648
3.69115
8.17813
6.75102
1.6808
0.211695
0.163959
31.5584
31.4104
30.6748
29.0826
27.7243
28.4138
25.2907
20.7049
17.3971
15.8572
11.1954
3.22934
-2.14292
2.77241
4.19156
5.46512
11.1163
14.8274
10.755
3.77725
6.56184
3.91723
1.95926
0.506078
0.378374
33.2379
33.2843
32.9181
32.0687
31.3574
33.751
31.8273
28.5376
26.8085
27.1632
30.9212
14.153
-24.5024
-0.96108
7.84974
8.87295
11.086
13.8894
9.20489
3.98799
4.64586
3.54585
0.853573
0.548501
0.451459
34.6775
34.8613
34.8316
36.0959
40.0688
41.0418
37.6862
34.4118
33.6906
34.5634
37.2834
10.6741
-22.3281
3.97609
13.4467
8.34439
9.87771
16.2182
7.11755
0.585321
3.15134
2.26004
1.40231
1.70268
0.789812
35.615
35.8534
36.5846
37.7722
39.0369
38.6554
37.1878
31.4609
30.7644
29.6658
33.2439
20.4657
-27.7693
1.89323
14.3078
9.0774
13.5746
20.6093
-4.71455
-2.48711
3.09607
4.62441
3.52526
2.55828
1.2333
36.0847
36.2251
36.5813
37.0676
37.4468
38.0225
37.2443
23.7081
33.4782
28.5559
25.3661
20.6002
5.59698
12.3159
16.3969
15.8521
21.4246
29.2957
-21.9351
-6.85471
4.6009
7.19785
5.07439
2.89957
1.35461
36.2735
36.3347
36.4535
36.614
36.6816
36.3667
36.8066
9.85378
38.4012
29.4721
27.5802
23.4118
12.1332
21.7187
23.5116
23.2226
28.7297
20.8297
-31.2574
-7.22719
6.60187
7.36691
5.27984
3.2878
1.38415
36.3166
36.3275
36.3096
36.2508
36.0112
35.2709
34.0706
31.0875
29.9305
27.5949
23.8402
21.3744
19.9642
23.0661
23.4481
20.9479
19.6009
11.8401
-6.70455
-0.676773
7.7246
7.88178
5.60666
3.58028
1.02872
16.5425
15.9568
14.247
11.0113
5.70663
0.208678
-2.42618
-3.13088
-6.09752
-9.64862
-11.6814
-11.2509
-8.80721
-6.35675
-5.03834
-5.05481
-5.45697
-5.68343
-5.39155
-4.51466
-3.30863
-2.19043
-1.30474
-0.836927
-0.409391
17.5842
17.165
15.8516
12.9063
6.86604
-0.751454
-4.0171
-3.3796
-4.49815
-7.81968
-10.2843
-11.5249
-10.4678
-8.0747
-6.04906
-5.52918
-5.67878
-5.81514
-5.34079
-4.27235
-3.17757
-2.33222
-1.4835
-0.69544
0.175941
19.2803
19.0008
18.0993
15.8151
7.53629
-6.25485
-6.85664
-5.28072
-4.20601
-6.93574
-10.0563
-14.4766
-15.3726
-12.4087
-8.67878
-6.80883
-5.58263
-4.05463
-2.32353
-0.644395
0.241383
-0.0130921
-0.499037
-0.284353
0.288359
21.4133
21.2654
20.5525
17.6511
9.98577
-6.15396
-8.49955
-8.62423
-9.55568
-10.0141
-10.1821
-19.8334
-20.1211
-15.1772
-9.04706
-6.25625
-4.14883
-1.9147
0.173507
1.39174
1.48619
0.420734
-0.612366
-0.374872
-0.0829728
23.7679
23.868
23.6734
21.1387
11.4315
-3.36514
-5.29466
-12.2588
-23.4518
-20.9352
-14.0756
-20.8842
-22.4369
-15.0285
-8.6644
-5.3418
-2.91915
-0.471665
1.54328
2.30167
2.1906
0.995806
-0.240141
-0.362191
-0.178023
25.9364
26.4343
27.4843
27.7795
17.8119
-1.6378
8.74238
-21.5027
-65.4272
-39.8327
-20.6737
-22.4557
-21.6728
-12.4687
-7.42234
-4.07664
-1.48456
1.02419
2.95718
3.55518
3.20903
1.95943
0.208404
-0.2334
-0.168313
27.2295
27.7654
29.4977
31.3421
21.9407
20.3927
38.4861
49.1512
-31.5289
-11.6864
-3.76942
-1.10876
0.608707
2.57267
4.28376
4.55044
4.17813
2.63283
0.487517
-0.104883
-0.123547
27.6944
28.0342
29.4142
30.7036
30.0954
39.1556
56.8525
73.1012
-40.4756
-5.05675
3.59359
3.41989
3.10739
3.7377
4.85245
5.18196
4.79485
3.08139
0.637442
-0.0135
-0.093387
27.8217
27.9868
28.9025
29.7148
31.9944
40.489
50.9469
-45.1827
-38.4201
-1.49183
4.83104
4.54293
4.39875
5.08694
5.81283
6.10912
5.43325
3.44468
0.757491
0.0109014
-0.0886563
27.9281
27.9291
28.3878
28.6267
30.0663
32.4921
19.8218
-44.1133
-43.5607
-23.1631
-21.8578
-31.4838
-25.9435
-3.34548
0.694678
2.87037
4.59814
6.43795
7.41385
7.45577
6.19739
3.76692
0.77763
-0.00214148
-0.103745
28.1957
28.0538
28.0783
27.6767
28.067
28.0301
15.5545
-19.1607
-17.2134
-15.1546
-15.254
-16.4677
-10.8376
-3.53956
-0.0247731
1.78893
4.17481
7.49691
8.85677
8.55729
7.02906
4.48703
0.81864
-0.0141969
-0.111423
28.7897
28.5396
28.0697
26.8471
26.2836
24.481
13.7766
0.416144
-2.84136
-0.828883
-8.51597
-12.7921
-4.43716
-0.145125
1.66315
2.57711
4.09429
8.72438
9.09128
8.33309
7.75721
5.13626
0.9484
0.0431278
-0.0631475
29.8758
29.6375
28.7857
27.0357
26.1032
24.9143
19.5165
12.6601
8.94703
8.62119
-4.21609
-7.60098
0.633901
3.3749
3.6101
5.51366
7.4795
10.6778
8.33448
6.88303
7.41611
5.15144
0.882796
-0.0278048
-0.041279
31.4365
31.3032
30.4756
28.7554
28.0449
28.3175
25.2361
21.0941
17.7225
14.7894
9.99363
4.15578
0.701253
3.23436
5.26731
6.67308
9.41021
11.3642
8.785
6.19507
6.57685
3.90905
0.7169
0.176063
0.193171
33.218
33.3116
32.9477
31.9639
32.1511
34.5649
32.2197
28.837
26.3099
24.7628
23.0146
11.62
-4.3662
2.3101
7.12412
8.14079
9.95939
11.242
8.31308
5.41517
5.16033
3.34672
0.36837
0.254672
0.38854
34.7046
34.9413
34.9587
36.5296
41.4658
41.9126
38.1336
34.6029
32.5984
31.0887
28.5092
13.5217
-1.43785
5.84992
9.72498
9.52341
11.2008
12.3049
6.63299
2.7535
3.02002
1.787
1.55547
1.52915
0.72529
35.6332
35.9175
36.7266
38.063
39.5028
39.3196
36.4262
31.4816
30.1663
28.0641
24.7468
15.3472
4.91261
10.3577
13.9532
12.4055
15.1251
17.5564
2.30651
1.78778
4.12836
4.13644
3.24627
2.45493
1.00309
36.0825
36.2522
36.6286
37.0946
37.3944
36.9372
35.5214
28.5727
30.296
27.2541
23.9613
19.0861
13.6971
17.3458
19.6732
19.5962
19.6921
19.6364
-4.37866
1.49292
6.33005
6.797
5.02745
3.03892
1.13929
36.2569
36.3414
36.4609
36.5805
36.5118
35.8095
33.8971
29.2817
31.2115
27.9133
24.7309
21.3088
18.257
21.6775
23.0279
22.2373
20.6131
16.2875
-6.84944
2.13422
6.94667
7.51772
5.4837
3.50575
1.26083
36.292
36.3266
36.3069
36.2223
35.9082
35.0392
33.5877
31.1773
29.5924
27.0635
24.0069
21.8321
20.7362
22.762
23.4545
21.6882
18.874
12.3063
3.58424
4.77415
8.43883
8.29162
6.09149
3.92458
1.16288
16.0701
15.4569
13.6707
10.5902
6.39416
2.2096
-0.612376
-2.87148
-6.73024
-10.6771
-12.6046
-11.6485
-8.67454
-5.99514
-4.69261
-4.67989
-5.02826
-5.24614
-4.92641
-4.05782
-2.94534
-1.99788
-1.28877
-0.882321
-0.473921
16.9806
16.4613
14.9708
11.7283
7.38979
2.62311
-0.440768
-2.42617
-5.39383
-9.12014
-11.2907
-11.5569
-9.87577
-7.60798
-5.8936
-5.40904
-5.41236
-5.43433
-4.89342
-3.85534
-2.80504
-2.07215
-1.35099
-0.724272
0.17975
18.496
18.0552
16.7502
13.498
7.14804
0.596762
-2.70386
-4.21708
-5.76146
-8.48648
-10.922
-13.208
-13.3969
-11.2916
-8.51048
-6.71484
-5.29548
-3.8919
-2.28252
-0.513284
0.479672
0.337869
-0.405682
-0.314471
0.269078
20.4386
20.084
18.9134
15.4023
9.12554
1.34513
-3.94126
-7.55247
-10.5658
-11.7058
-12.3493
-15.8505
-16.2982
-13.0395
-9.00659
-6.24597
-3.94816
-1.912
0.0438517
1.39704
1.71393
0.675058
-0.538336
-0.364381
-0.0965454
22.6158
22.4444
21.6685
18.4612
11.5749
3.90137
-1.05572
-10.6408
-22.7819
-21.1872
-16.4151
-17.6865
-17.6776
-13.0075
-8.27266
-5.2198
-2.74482
-0.446516
1.46998
2.48921
2.51422
1.40806
-0.123261
-0.363406
-0.20573
24.6637
24.7781
24.8384
23.0699
16.205
10.6057
13.1217
-16.4119
-65.9549
-40.8167
-21.5169
-21.1143
-18.2892
-11.3185
-6.98886
-4.02772
-1.42474
1.04427
2.95375
3.70068
3.66742
2.24891
0.239587
-0.249367
-0.202632
26.0399
26.2485
26.9221
26.4676
22.149
25.1589
39.0612
55.7249
-27.6431
-8.37227
-3.91745
-1.62381
0.592121
2.67709
4.38743
4.78943
4.44337
2.76129
0.474772
-0.137531
-0.164295
26.7195
26.8607
27.578
27.7583
28.2501
37.0191
52.253
71.697
-39.9701
-3.02476
1.42228
2.29649
2.85823
3.87955
5.08529
5.38318
4.90983
3.04216
0.614054
-0.0598594
-0.137784
27.0399
27.0641
27.5566
27.7482
29.7036
36.9723
45.3335
-50.6251
-37.8511
-0.469911
2.39777
3.48008
3.96183
5.05196
5.84348
6.18781
5.48161
3.44832
0.709745
-0.0405082
-0.134905
27.2886
27.1655
27.2728
26.9121
27.7311
28.6119
15.7634
-36.4429
-34.8407
-19.2182
-20.0382
-37.2003
-17.4434
-2.7143
0.0573987
2.66953
4.40089
6.12975
7.21456
7.38794
6.11782
3.68082
0.711544
-0.062702
-0.151887
27.6804
27.4299
27.1026
26.0452
25.8024
24.1189
11.3685
-9.16895
-13.2683
-12.7603
-13.3563
-13.9337
-8.53592
-2.84363
0.250616
2.45886
4.6231
7.0521
8.41157
8.21776
6.58638
4.00944
0.674366
-0.104733
-0.17335
28.4116
28.0888
27.3355
25.6621
24.8672
22.713
13.8206
3.51435
-0.694731
-1.63721
-5.78091
-7.79856
-3.87934
-0.133321
1.92961
3.35362
5.29231
7.84155
8.64515
8.23468
6.80081
4.21927
0.623824
-0.131742
-0.166017
29.6371
29.3627
28.3243
26.3818
25.5584
24.2343
19.1873
13.343
9.39124
6.51505
0.575443
-2.01101
0.462935
2.76511
4.00642
5.22516
7.09991
8.99231
8.51841
7.52289
6.7087
4.03212
0.383376
-0.178611
-0.153197
31.3274
31.1919
30.2704
28.4901
28.0562
28.2476
25.1881
21.3323
17.7617
14.3657
10.0652
5.33035
2.84033
4.1617
5.66779
6.71597
8.49569
9.72549
8.38499
6.82143
6.11898
3.20617
0.119357
-0.0159881
0.0904372
33.2215
33.3536
32.9921
31.975
32.7099
35.071
32.4214
28.9193
25.7656
23.0212
19.3643
11.1925
3.37281
4.64448
6.76634
7.64594
9.06306
9.56483
7.68872
5.77337
4.95963
2.73646
0.0303874
0.0333919
0.327351
34.7591
35.0443
35.1372
36.938
42.4282
42.4695
38.4963
34.71
31.8174
28.8794
24.6866
15.4756
6.26505
7.35581
8.76311
9.14844
10.1281
9.90734
6.46667
3.6549
2.66785
1.13853
1.22989
1.29859
0.566315
35.6795
36.0013
36.8961
38.3632
39.9452
39.8004
36.9393
32.5244
29.767
26.776
23.214
16.8171
10.0495
11.8315
14.3818
14.3311
13.3652
11.2036
4.77346
3.20942
4.03151
3.73811
2.88292
2.19366
0.738816
36.1034
36.2953
36.6996
37.173
37.4368
36.8464
34.6862
30.8058
29.0462
26.3141
23.0396
19.2456
15.7974
17.7181
19.5032
18.8909
17.4177
13.2367
4.25697
4.09416
6.56173
6.55949
4.86253
2.97818
0.909147
36.2592
36.3581
36.4838
36.5776
36.4416
35.665
33.9522
31.2277
29.8002
27.1747
24.1965
21.4772
19.5585
21.3739
22.6094
21.7227
19.2449
13.1636
4.71621
4.98098
7.77182
7.69031
5.67216
3.61045
1.16861
36.2836
36.3324
36.3148
36.2046
35.8402
34.9224
33.3854
31.1015
29.0926
26.6453
24.073
22.2246
21.5451
22.8485
23.5203
22.2251
19.4952
14.3747
7.97877
7.44821
9.19548
8.64418
6.54263
4.25805
1.39454
15.6407
15.0248
13.2542
10.4034
7.00352
3.68947
0.706752
-2.62415
-7.21649
-11.4186
-13.2804
-11.9679
-8.60432
-5.7085
-4.36326
-4.30692
-4.66805
-4.86886
-4.54426
-3.71998
-2.72707
-1.93096
-1.34881
-0.954957
-0.543242
16.4397
15.8752
14.3109
11.1002
7.86015
4.74945
1.67908
-1.56746
-5.77561
-9.96953
-12.0879
-11.7623
-9.59997
-7.26916
-5.67024
-5.16977
-5.08198
-5.03644
-4.48153
-3.49916
-2.5452
-1.9024
-1.2782
-0.764953
0.147494
17.794
17.2704
15.7553
12.3043
7.40814
3.76963
-0.126479
-3.41135
-6.44489
-9.42828
-11.4388
-12.5661
-12.1981
-10.4463
-8.09496
-6.3936
-4.89572
-3.65904
-2.05938
-0.344702
0.573329
0.624985
-0.313246
-0.321853
0.239055
19.5612
19.0913
17.6573
14.03
9.2445
4.68614
-1.37729
-6.64129
-10.6285
-12.3138
-12.9987
-14.1943
-14.0764
-11.8178
-8.59323
-5.97129
-3.73626
-1.78634
0.0247173
1.53979
1.88737
1.0251
-0.463917
-0.378313
-0.137104
21.5673
21.2268
20.0698
16.6836
11.8206
7.33615
0.861719
-9.79982
-20.4189
-19.596
-16.5209
-16.0058
-14.9576
-11.6493
-7.82573
-4.87989
-2.42487
-0.324944
1.42269
2.72276
2.81422
1.75527
-0.0252143
-0.363814
-0.234092
23.4998
23.3626
22.7668
20.2769
16.1672
14.1853
12.179
-16.2654
-52.991
-32.9591
-20.6551
-19.5379
-15.8645
-10.4655
-6.72252
-3.82478
-1.21307
1.10618
2.96471
3.8963
4.02014
2.424
0.296329
-0.256796
-0.233009
24.9281
24.903
24.8421
23.4732
21.5596
24.9803
32.2356
46.5428
-22.4268
-8.13375
-4.25091
-2.03958
0.454575
2.72343
4.47437
4.9375
4.73013
2.83697
0.493652
-0.153831
-0.198165
25.7797
25.7491
25.9004
25.3442
26.0312
32.7407
40.3307
57.3942
-46.5319
-7.59157
-1.79831
0.783647
2.31252
3.89675
5.24474
5.52502
4.98124
3.09364
0.6496
-0.0803529
-0.172855
26.2712
26.1631
26.2241
25.7771
27.009
31.9988
34.1801
-49.3081
-33.5567
-4.4893
-0.435824
2.2557
3.47624
4.96831
5.88285
6.26362
5.42121
3.52032
0.737054
-0.0631807
-0.17109
26.6598
26.4303
26.1746
25.2156
25.3447
25.026
12.6098
-27.7909
-26.717
-16.9443
-17.4742
-34.0115
-11.7819
-2.99043
-0.373682
2.44312
4.22867
6.05568
7.19321
7.17492
6.09744
3.65197
0.701916
-0.0968968
-0.193311
27.1831
26.8431
26.1947
24.6139
23.8443
21.4804
10.7134
-4.05009
-9.5978
-10.2583
-11.1833
-11.2917
-6.66928
-2.22228
0.671921
2.97449
4.92828
7.08217
8.30229
7.93278
6.30628
3.68077
0.603154
-0.164584
-0.226327
28.0555
27.6726
26.6658
24.6343
23.5669
21.334
14.0091
5.87673
1.29788
-0.8319
-3.66959
-4.8245
-2.51843
0.438777
2.52345
4.02519
5.79887
7.73486
8.53541
8.01048
6.30286
3.62761
0.437192
-0.245462
-0.245642
29.4211
29.1151
27.9055
25.7827
24.9363
23.6193
19.092
14.0509
10.1361
6.90402
2.96637
0.733979
1.49919
3.24523
4.56604
5.48536
7.06649
8.46217
8.37254
7.65981
6.15108
3.31395
0.110562
-0.276882
-0.224448
31.2425
31.1046
30.1041
28.2733
27.9534
28.1276
25.1232
21.4833
17.8324
14.2893
10.3905
6.49083
4.47759
5.09517
6.06442
6.74213
8.01742
8.92549
8.03771
6.86072
5.56202
2.48152
-0.198594
-0.14937
0.0287583
33.2483
33.4173
33.0612
32.061
33.0346
35.3077
32.4603
28.8566
25.3326
21.878
17.7646
11.7186
6.75136
6.16315
6.78971
7.3562
8.42046
8.57383
7.2019
5.74543
4.53497
2.21779
-0.195452
-0.14513
0.284982
34.8358
35.166
35.3405
37.3241
43.0967
42.8297
38.7008
34.7496
31.2362
27.5153
22.9395
16.2066
9.78524
8.42288
8.528
8.7211
9.16669
8.58748
6.28267
3.97582
2.39237
0.690278
0.974228
1.0056
0.430694
35.7455
36.0988
37.0811
38.6744
40.3451
40.1662
37.27
33.0392
29.3932
25.8917
22.306
17.3717
12.6999
12.7212
13.9568
13.8167
12.971
11.0607
6.59541
4.53615
4.09602
3.39953
2.55117
1.92444
0.557597
36.1403
36.3488
36.788
37.2888
37.5628
36.9448
34.8904
31.4792
28.8238
25.8726
22.641
19.5803
17.2855
18.1393
19.1739
18.4995
16.99
13.9232
7.98231
6.38182
6.90329
6.33749
4.7292
2.85168
0.79176
36.2738
36.3821
36.5183
36.6076
36.4504
35.6658
33.9936
31.4652
29.3518
26.7479
23.9466
21.7569
20.5353
21.4732
22.3225
21.5175
19.2892
14.9252
8.93218
7.56189
8.26614
7.63276
5.72954
3.61228
1.18396
36.2862
36.3433
36.3291
36.2078
35.8225
34.8959
33.3132
31.0617
28.8099
26.3911
24.079
22.5586
22.1502
23.0541
23.612
22.6095
20.1515
16.0005
11.0924
9.36053
9.53173
8.74712
6.82757
4.47661
1.66461
15.2861
14.6855
12.9849
10.3831
7.56626
4.76599
1.63013
-2.40654
-7.52809
-11.947
-13.8108
-12.2649
-8.60927
-5.55567
-4.15471
-4.07609
-4.42595
-4.5975
-4.27361
-3.5099
-2.6248
-1.95364
-1.45108
-1.03712
-0.60444
16
15.4294
13.8622
10.8293
8.3511
6.12483
3.00048
-0.930514
-5.93553
-10.5471
-12.7555
-12.0739
-9.55434
-7.07736
-5.49053
-4.95475
-4.83396
-4.73952
-4.16889
-3.22835
-2.36905
-1.82987
-1.27782
-0.846521
0.106466
17.2205
16.6689
15.0805
11.7323
7.71542
5.41564
1.37161
-2.76488
-6.68268
-9.966
-11.7853
-12.3294
-11.6193
-9.8669
-7.65741
-6.02425
-4.60201
-3.37862
-1.7932
-0.106053
0.658673
0.70359
-0.279762
-0.347892
0.205342
18.8375
18.3153
16.7542
13.2288
9.41103
6.26068
-0.00480099
-5.82924
-10.1971
-12.3548
-13.1123
-13.3496
-12.8766
-10.9832
-8.15267
-5.6238
-3.54262
-1.61565
0.0933884
1.77852
2.09321
1.21057
-0.429482
-0.413838
-0.181076
20.6959
20.2598
18.8779
15.5196
11.7585
8.5619
1.39556
-8.81512
-17.2946
-17.6503
-15.9254
-14.9519
-13.5023
-10.7862
-7.49435
-4.55324
-2.21995
-0.244371
1.49583
2.9973
3.18418
1.91653
0.0223138
-0.384172
-0.259978
22.5245
22.2371
21.2385
18.5107
15.5658
14.1326
8.37879
-13.9728
-35.6331
-26.4899
-19.5886
-17.7261
-14.3976
-10.0776
-6.54815
-3.51065
-1.01877
1.23214
3.15644
4.24618
4.36884
2.52158
0.327858
-0.276393
-0.262338
23.9772
23.796
23.2427
21.4086
20.0541
21.8713
20.3618
-22.2483
-54.1956
-28.2174
-21.0674
-23.2167
-18.0196
-9.26123
-5.11867
-2.04806
0.468528
2.87217
4.60893
5.21145
4.98873
2.85456
0.515046
-0.17504
-0.228651
24.9521
24.7911
24.4876
23.3301
23.4535
27.034
24.6696
-44.6109
-51.5723
-26.2903
-20.5542
-25.7612
-24.0244
-8.58311
-3.4457
0.00181925
2.06141
4.06137
5.41342
5.70806
5.16762
3.10908
0.681845
-0.103266
-0.204602
25.5863
25.3708
25.0399
23.9569
24.2158
26.2912
19.5829
-63.1734
-36.7763
-21.4995
-19.4402
-27.7867
-18.0199
-6.15829
-1.74103
1.48668
3.31523
5.01667
5.94276
6.25808
5.48161
3.5385
0.767508
-0.090035
-0.204605
26.1041
25.7888
25.2094
23.7065
23.068
21.7043
10.0569
-16.5397
-20.234
-15.8237
-15.8009
-18.8715
-9.60196
-3.66981
-0.446898
2.42231
4.25175
6.11084
7.23214
7.08254
6.10048
3.60169
0.690683
-0.137785
-0.231961
26.7523
26.3456
25.4341
23.4375
22.1613
19.5703
10.4902
-0.789289
-6.40044
-7.86109
-9.02548
-8.76514
-5.32386
-1.69079
1.25232
3.45094
5.20504
7.18511
8.33716
7.68725
6.1451
3.44427
0.553194
-0.225525
-0.27275
27.7544
27.3327
26.1272
23.8118
22.4938
20.2709
14.056
7.46131
2.9815
0.385997
-2.04278
-2.87851
-1.30282
1.10978
3.1739
4.59839
6.12315
7.81619
8.53455
7.77519
5.99703
3.30879
0.314474
-0.337349
-0.306879
29.2491
28.9259
27.5907
25.3337
24.4084
23.0716
19.0006
14.5681
10.8463
7.63695
4.38942
2.40267
2.62867
3.92006
5.02806
5.88016
7.16947
8.26252
8.37357
7.52429
5.77326
2.89036
-0.0237431
-0.358226
-0.273128
31.1911
31.06
30.0145
28.1502
27.8401
27.9079
24.9712
21.5064
17.9508
14.3864
10.7624
7.42976
5.77722
5.93214
6.39846
6.81874
7.8413
8.49025
7.79646
6.68954
5.16169
2.10753
-0.385089
-0.26687
-0.00787331
33.2978
33.5117
33.1809
32.2171
33.2495
35.2751
32.3275
28.6928
24.9776
21.1892
17.044
12.1753
8.39582
7.1735
6.97837
7.19757
8.02186
8.0559
6.80396
5.63883
4.24413
1.89186
-0.384479
-0.326988
0.25498
34.9279
35.3083
35.5845
37.7725
43.6719
42.9848
38.7233
34.6243
30.7313
26.6116
21.9952
16.4287
11.339
9.05151
8.45992
8.39687
8.48548
7.87494
6.13638
4.08229
2.23766
0.393604
0.711634
0.715974
0.350357
35.8223
36.2055
37.2852
39.0129
40.7423
40.4506
37.4328
33.1835
29.0455
25.2973
21.7777
17.5553
13.9531
13.1575
13.5949
13.4396
12.5719
10.8635
7.58637
5.26474
4.12119
3.17522
2.31603
1.69787
0.482799
36.185
36.4072
36.8905
37.4382
37.7282
37.0832
35.0319
31.8514
28.7096
25.4768
22.3938
19.761
18.1073
18.3838
18.8489
18.1932
16.7555
14.1122
9.84822
7.62075
7.02256
6.16205
4.6317
2.72591
0.803988
36.2942
36.4098
36.5643
36.667
36.5077
35.7112
34.0604
31.6231
29.1044
26.3805
23.7647
21.9333
21.0909
21.6103
22.0957
21.3372
19.3
15.7924
11.2654
9.01415
8.49397
7.55172
5.74226
3.57518
1.26355
36.2927
36.3566
36.351
36.2352
35.8478
34.9171
33.3066
31.0658
28.6528
26.1986
24.0517
22.7885
22.5966
23.2864
23.6957
22.7992
20.545
16.9908
12.8871
10.5881
9.764
8.69269
6.8794
4.51473
1.82917
15.0224
14.4457
12.8399
10.4888
8.09203
5.56494
2.2391
-2.28703
-7.79268
-12.4018
-14.3007
-12.5614
-8.67146
-5.5474
-4.13285
-4.02162
-4.3212
-4.44121
-4.10915
-3.39515
-2.59636
-2.03446
-1.58763
-1.13871
-0.656233
15.6779
15.1254
13.5943
10.8143
8.90179
7.02865
3.8083
-0.568885
-6.10125
-11.0883
-13.3456
-12.4358
-9.64456
-7.05195
-5.42803
-4.86329
-4.71985
-4.55592
-3.95846
-3.04432
-2.2485
-1.82843
-1.37412
-0.994312
0.084078
16.7975
16.25
14.6739
11.5235
8.04613
6.30036
2.16482
-2.35284
-6.78739
-10.3091
-12.0528
-12.3323
-11.4095
-9.46026
-7.28799
-5.76681
-4.4728
-3.22195
-1.58686
0.0595926
0.78674
0.716659
-0.33517
-0.418632
0.177657
18.2959
17.7603
16.1594
12.7675
9.49501
6.81932
0.602696
-5.19085
-9.6892
-12.2262
-13.0542
-12.8859
-12.2447
-10.3705
-7.76842
-5.3391
-3.39344
-1.57623
0.234995
2.02001
2.32333
1.39395
-0.48041
-0.466423
-0.206907
20.0362
19.5555
18.0519
14.7427
11.4907
8.61829
1.2731
-7.64541
-14.5689
-16.1067
-15.332
-14.2756
-12.7423
-10.2642
-7.24174
-4.33108
-2.14093
-0.23207
1.71371
3.33558
3.55245
2.12814