/*--------------------------------*- C++ -*----------------------------------*\
  =========                 |
  \\      /  F ield         | OpenFOAM: The Open Source CFD Toolbox
   \\    /   O peration     | Website:  https://openfoam.org
    \\  /    A nd           | Version:  6
     \\/     M anipulation  |
\*---------------------------------------------------------------------------*/
FoamFile
{
    version     2.0;
    format      ascii;
    class       volScalarField;
    location    "10";
    object      epsilon;
}
// * * * * * * * * * * * * * * * * * * * * * * * * * * * * * * * * * * * * * //

dimensions      [0 2 -3 0 0 0 0];

internalField   nonuniform List<scalar> 
230684
(
0.197924
0.162009
0.153505
0.225037
0.487728
0.661094
0.816128
0.77974
0.822359
0.844421
0.87152
0.92184
0.988489
1.08957
1.20632
1.33327
1.44969
1.55631
1.661
1.76017
1.85484
1.90291
1.88541
1.77246
1.65431
0.195671
0.165945
0.28211
0.280061
0.751276
0.850171
2.13942
1.51837
1.42464
1.41455
1.49822
1.90831
2.47971
3.06914
3.89345
4.7175
4.96111
5.0997
5.40195
5.47097
5.6662
5.63274
4.78309
2.7032
2.22947
0.195745
0.170424
0.260626
0.399491
1.95468
1.83325
1.28037
2.77708
2.43217
2.05879
1.90341
1.79117
1.78274
2.1776
2.74391
2.50261
2.28861
2.13696
2.03212
2.05247
1.98851
1.74932
1.16333
0.787476
0.667945
0.197798
0.335176
0.499469
0.633277
0.802868
3.21729
2.06897
1.27244
1.59692
2.3626
2.66122
6.74049
2.39322
2.24731
2.43151
1.25563
1.56369
1.67516
1.82017
1.84872
1.79315
1.68304
1.30408
0.806379
0.549889
0.193976
0.173692
0.276686
0.388426
0.663763
1.12502
1.32413
1.8618
2.75457
3.33265
3.10135
5.66428
2.32678
2.31703
4.21707
1.33843
1.74116
1.77522
1.82438
1.83814
1.91392
2.00151
1.69246
0.947109
0.626583
0.193064
0.172637
0.280802
0.357504
0.959344
1.32714
0.931511
0.997043
1.68387
1.34052
1.56507
1.51046
1.73606
1.80108
5.85058
1.9702
1.91181
1.91029
1.99688
2.18515
2.13234
1.95058
1.70288
0.99581
0.663735
0.193264
0.172913
0.283632
0.349812
5.01458
1.20891
0.81803
0.841909
0.928515
0.855814
0.741193
0.95283
1.4422
1.11595
1.11411
1.6409
2.07362
2.1917
2.20851
2.21983
2.24376
2.25167
2.0033
1.09896
0.722183
0.195121
0.171797
0.28435
0.394305
0.726892
0.894264
1.03169
12.75
1.32405
0.972149
0.884821
0.877072
2.52922
2.83347
1.48661
1.27274
1.69073
1.92324
2.20082
2.43074
2.38901
2.40646
2.11499
1.12788
0.741873
0.196564
0.169132
0.285624
0.438463
0.681977
1.17444
1.62529
5.0833
1.11754
0.912074
0.834753
0.875069
3.6348
1.97809
1.4314
1.38908
1.60796
2.01671
2.36254
2.48758
2.437
2.31915
2.04551
1.13621
0.746479
0.197603
0.164893
0.282587
0.454509
0.752247
1.23858
1.2557
2.07566
3.31953
2.0592
1.22843
1.46294
1.83095
3.98306
3.42048
2.92041
2.38829
2.23268
2.25417
2.47083
2.57295
2.66291
2.25188
1.16841
0.757726
0.198107
0.164474
0.291545
0.480165
0.803241
3.16127
1.91041
1.49298
1.08637
1.04244
1.04351
1.34919
1.61017
0.85545
0.844219
0.853248
1.32038
1.99841
2.30026
2.26534
2.30989
2.26469
1.95996
0.959513
0.638605
0.196851
0.167876
0.291905
0.544947
0.83968
1.23839
1.65557
0.886424
1.76289
1.03541
0.962682
1.13886
0.982236
0.873617
0.846591
0.853223
1.06777
1.24585
2.66346
1.76763
1.37328
1.40523
1.70226
0.867742
0.572202
0.197773
0.165109
0.303187
0.596636
0.887946
1.13242
1.06922
2.2727
1.27348
1.21382
1.48282
2.2827
3.27233
2.04898
3.06923
2.01519
7.92084
2.68317
6.98199
1.63011
1.76599
1.46637
1.1745
0.775311
0.430217
0.194914
0.167368
0.306897
0.652385
1.00689
1.36779
1.46776
1.38988
1.52978
1.59646
1.75061
1.76557
1.36976
1.72037
1.57727
2.4206
1.59414
2.11103
9.11331
1.49266
5.10706
1.36225
1.50037
0.847727
0.381349
0.193096
0.170809
0.315928
0.723761
1.07998
1.3849
1.534
1.61268
1.64403
1.79245
1.93155
6.18279
2.09506
2.17722
2.61128
2.74557
1.74442
1.93581
2.3773
1.99801
2.08841
2.89969
4.69008
1.19031
0.556892
0.19289
0.170954
0.308397
0.908868
0.825117
0.977921
1.12023
1.10894
1.10448
1.0684
1.55163
8.69968
2.45405
3.0574
1.7538
1.60288
0.856552
1.68415
1.37279
1.84904
1.40311
1.46518
0.766921
0.879345
0.902435
0.195178
0.167477
0.191424
0.383594
0.403247
0.416279
0.701525
0.562401
0.417722
0.621751
0.88138
1.05334
3.00708
2.71554
2.75861
1.04009
1.01237
1.79049
1.78245
1.0575
2.18035
2.36043
1.17094
1.17793
1.46701
0.198141
0.166081
0.170604
0.228845
0.282895
0.541705
0.943523
1.58795
0.942101
0.636791
0.814182
0.870261
0.731299
1.02031
1.50087
1.21338
0.88393
1.61838
4.55211
0.76883
1.80218
0.918113
1.02222
1.27391
1.521
0.196271
0.170235
0.157673
0.174306
0.216492
0.260783
0.475252
1.83137
1.08834
0.931397
1.31314
5.62126
1.67922
1.23307
0.88104
0.732201
0.65044
1.37108
3.41837
1.05226
1.67833
0.862529
0.873952
0.911315
1.07854
0.196116
0.173262
0.15339
0.157432
0.177427
0.210902
0.25838
0.307968
0.346798
0.382078
0.386183
0.73946
0.600217
0.437261
0.449105
0.424215
0.757782
1.09049
1.14964
0.799803
0.736361
0.73544
0.689116
0.640473
0.637643
0.0364785
0.0402798
0.0494376
0.113586
0.305219
0.507841
0.407497
0.561482
0.576341
0.600077
0.632713
0.671179
0.715814
0.770416
0.82759
0.884312
0.940654
0.999883
1.06167
1.0529
1.20121
1.23701
1.22727
1.07658
1.05045
0.0367825
0.0401108
0.0512541
0.118813
0.464931
0.813929
2.05887
2.47492
1.58307
1.13291
1.10472
1.12456
1.26311
1.49395
1.79187
2.05932
2.29271
2.47319
2.71101
2.82779
2.98767
2.9898
2.53513
1.91352
1.78879
0.0373967
0.0415171
0.0535485
0.135217
1.85851
5.63351
1.06572
0.525743
0.494042
0.625897
0.726616
0.816402
0.770911
0.742165
0.732756
0.721751
0.71567
0.720649
0.712949
0.66876
0.54225
0.519592
0.563383
0.0376642
0.0476572
0.0611385
0.207361
0.635157
0.603911
0.313083
0.346006
0.571573
4.45254
0.555549
0.211622
0.23052
0.373498
0.49659
0.556479
0.588524
0.587695
0.47653
0.385454
0.356739
0.0379268
0.0418025
0.0572738
0.106949
0.310008
1.47499
0.7471
0.455561
0.399005
0.436244
0.566529
3.49806
0.88291
0.658979
0.540031
0.543435
0.590209
0.624382
0.631808
0.52992
0.407566
0.374193
0.0380096
0.0419523
0.0600214
0.0997297
1.1613
2.19532
0.492432
0.429584
1.5279
2.09164
0.731123
0.439681
0.254765
0.461477
0.604841
0.681907
0.667213
0.662181
0.538057
0.417758
0.386918
0.0380121
0.0415567
0.0588414
0.111101
3.16832
0.556715
1.34233
0.669761
0.339449
0.350512
0.416894
0.494855
0.575914
0.637284
0.690346
0.699856
0.586515
0.444968
0.409571
0.0378978
0.0417631
0.0522882
0.107408
0.435204
0.565554
0.629224
5.75148
1.14521
0.487956
0.360505
0.367325
0.481885
0.559023
0.62531
0.697883
0.721225
0.727582
0.606934
0.448856
0.413711
0.0376966
0.0409854
0.052135
0.117458
0.135448
0.319144
0.855166
1.03111
0.593403
0.369432
0.368238
0.469005
0.578505
0.661799
0.703519
0.706667
0.72313
0.599495
0.446587
0.410379
0.0376141
0.0406715
0.0526014
0.135658
0.145857
0.281381
0.593783
1.94329
1.63022
0.547833
0.46205
1.09411
2.35661
0.86673
0.455403
0.42895
0.449383
0.498161
0.571604
0.670203
0.731734
0.756423
0.622183
0.443467
0.406073
0.0376271
0.0414629
0.0545456
0.163757
0.273544
2.23797
2.07301
1.01798
1.33702
0.88762
0.606522
0.368708
0.393544
0.394508
0.452358
0.534101
0.635571
0.671545
0.526645
0.363039
0.342324
0.0375405
0.0418459
0.0611199
0.200704
0.168484
0.610419
1.56079
1.40924
1.9174
2.54935
0.733369
2.60287
0.733247
0.525886
0.443579
0.520921
0.465219
0.393022
0.037568
0.0424606
0.0682301
0.246177
0.170434
0.254033
0.412918
1.83572
2.94956
2.14652
2.09549
1.36503
0.480572
1.9709
0.726022
3.20603
1.81343
0.662304
0.441577
0.483628
0.360018
0.0376674
0.0443319
0.0788067
0.298061
0.193849
0.267832
0.390951
0.452535
0.595388
0.499882
0.491074
1.19686
1.7865
0.777792
0.828193
2.07639
0.459935
0.48182
4.60966
1.6888
2.38743
0.500916
0.210631
0.0379428
0.0467946
0.0914703
0.37178
0.214009
0.29479
0.396574
0.474215
0.527235
0.573921
0.625658
3.68334
7.69129
1.05021
0.52482
0.879371
1.02501
0.972882
0.924147
1.00075
1.19899
1.56344
0.434592
0.445296
0.0382735
0.0478612
0.0897986
0.426846
0.257998
0.288186
0.364433
0.429748
0.495563
0.481935
0.532675
12.3754
5.36837
1.04451
0.957066
1.01187
1.66127
0.727311
0.736296
0.0380531
0.04512
0.0700502
0.240248
0.27361
0.210897
0.232804
0.302118
0.385161
0.406801
0.397539
2.03426
0.228789
3.22192
2.14398
2.31206
0.86542
0.54004
0.752733
0.889645
1.06645
1.08064
0.0378885
0.0442646
0.0567729
0.122754
0.218191
0.223044
0.224476
3.78257
1.46947
0.943116
0.605819
0.503314
0.664133
7.13691
1.53614
1.39399
2.46719
3.73427
1.87891
1.24136
1.16337
1.16456
1.13321
0.0371318
0.0440012
0.0513608
0.06932
0.147155
0.213249
0.429651
11.5902
2.18156
1.08374
0.865583
3.18654
1.45217
1.00543
0.921119
0.715489
3.45469
5.07693
1.87381
1.2078
1.00897
0.934165
0.901742
0.0367771
0.0437178
0.04985
0.0607616
0.0928632
0.163331
0.261084
0.334211
0.346581
0.372475
0.356837
0.379432
0.386219
0.323857
0.300406
0.289546
0.323088
0.662852
2.06921
0.979151
0.661107
0.627273
0.588133
0.553207
0.532646
0.0294237
0.0301034
0.0388217
0.0910547
0.288275
0.443718
0.373459
0.47283
0.52544
0.578855
0.626122
0.666093
0.703831
0.738172
0.774343
0.808827
0.837168
0.866411
0.893231
0.916688
0.938908
0.954992
0.929301
0.810808
0.793214
0.0294329
0.029739
0.0347381
0.120326
0.253559
0.357017
0.53013
0.975419
1.15012
1.15312
1.19118
1.31651
1.42958
1.62129
1.86194
2.04511
2.18464
2.30929
2.48015
2.50361
2.6083
2.53863
2.1221
1.6522
1.58942
0.0295136
0.029846
0.0353243
0.0881874
0.491411
1.10644
0.248465
0.275253
0.131369
0.0864539
0.0979604
0.142987
0.194023
0.24982
0.28723
0.299419
0.320534
0.327468
0.322092
0.324396
0.318444
0.310866
0.292105
0.32972
0.506761
0.0295403
0.0296648
0.0337868
0.0643257
0.145764
1.19056
0.170026
0.0937878
0.0577678
0.0469079
0.0684998
0.98381
0.198273
0.162859
0.0943628
0.0469045
0.0408431
0.0471742
0.0553928
0.0613724
0.0624009
0.0642877
0.0648845
0.101857
0.139654
0.0295991
0.0299839
0.0331359
0.0615916
0.15619
0.591524
0.251169
0.276353
0.17751
0.0663137
0.0732448
1.21887
0.293098
0.154006
0.170296
0.0843468
0.0503899
0.0502922
0.0599888
0.0636313
0.0667162
0.0646942
0.0659699
0.0892503
0.110386
0.0296578
0.0302199
0.0332095
0.069157
1.26121
3.71713
0.349582
0.100093
0.179565
0.186176
0.108488
0.185766
0.0747507
0.0433486
0.0470778
0.0584474
0.0677277
0.0683509
0.067734
0.0651615
0.085766
0.107116
0.0297047
0.0300201
0.0330523
0.0754564
7.0567
3.33617
1.5051
0.332363
0.0635805
0.0459581
0.0468408
0.0514773
0.0575202
0.0644018
0.0681102
0.0686809
0.0685923
0.0891357
0.108579
0.0297183
0.0297966
0.0330713
0.0669364
0.187621
0.238983
0.484542
3.30784
0.604295
0.209006
0.0552628
0.0479822
0.0540854
0.0583386
0.0616858
0.0673689
0.0675202
0.070043
0.0685966
0.0887047
0.107536
0.0297193
0.0297682
0.0337358
0.072538
0.0545163
0.067982
0.418571
0.851873
0.745041
0.155852
0.0510134
0.0465986
0.0516845
0.0576277
0.0627515
0.0664291
0.0688171
0.0688822
0.0676358
0.0872766
0.105552
0.0297581
0.0300281
0.0359995
0.0839547
0.0546308
0.051384
0.149313
1.36243
0.579822
0.366458
1.36046
1.10968
0.76951
0.171296
0.0576146
0.047585
0.05031
0.0524904
0.0582649
0.0633175
0.0684736
0.0715168
0.0687941
0.0847624
0.104982
0.0298195
0.0304571
0.0413394
0.105317
0.0671614
0.0946315
2.34609
7.11355
3.17123
2.80925
3.98092
1.82915
1.49575
1.35321
0.980326
0.45906
0.270842
0.0922772
0.0590115
0.0588889
0.0655904
0.067123
0.0633915
0.071925
0.0972652
0.0298755
0.0311017
0.0440164
0.12306
0.0598602
0.0630634
0.531892
0.952451
0.720251
2.83832
2.94543
3.79337
3.43341
3.4293
2.58416
2.78221
2.28619
0.901833
0.27658
0.120796
0.0931392
0.0812381
0.0648059
0.0783651
0.111694
0.0299812
0.0319398
0.052114
0.147527
0.0594901
0.0430902
0.0532842
0.13127
0.184645
1.19438
4.14769
2.34723
0.507646
0.363109
0.352095
0.779917
0.768876
0.31066
0.42945
0.183048
0.137078
0.0988374
0.0704215
0.0818214
0.108741
0.0302394
0.034343
0.0670246
0.181725
0.0673491
0.0433232
0.0475277
0.0557839
0.0699517
0.0792461
0.185741
0.215716
0.242988
0.120269
0.0946202
0.0704653
0.0685256
0.0605798
0.332347
0.232925
0.586114
0.197728
0.193551
0.11281
0.123056
0.0307123
0.0377089
0.0884015
0.230725
0.0754353
0.0486655
0.0503753
0.0564397
0.0628123
0.0645189
0.0858747
1.17883
0.696768
0.166528
0.112406
0.0816383
0.0638282
0.0741561
0.0912298
0.108121
0.104919
0.12043
0.14984
0.269791
0.409565
0.0311792
0.038377
0.0811772
0.327617
0.137534
0.0926125
0.0948725
0.129963
0.232574
0.303722
0.379941
1.13177
0.806454
0.465384
0.51665
0.673562
0.335676
0.513495
0.597497
0.488305
0.456335
0.455206
0.500805
0.774466
0.861819
0.0307237
0.035202
0.0626266
0.241207
0.240159
0.150682
0.135921
0.17283
0.289446
0.292603
0.313969
0.828848
1.24386
0.888718
0.930869
0.860839
0.852046
1.55935
1.19187
0.948263
0.905381
1.25661
1.40924
1.29073
1.17564
0.0310009
0.032562
0.0466356
0.120691
0.208625
0.190713
0.187379
1.55224
0.811076
0.978601
0.685715
0.494518
0.478415
0.685693
1.11175
1.33564
1.4966
2.24163
1.72583
1.09387
1.41019
1.64558
1.50666
1.34814
1.22487
0.0303044
0.033029
0.0394793
0.0600889
0.149074
0.224968
0.313272
8.66986
1.34057
0.934777
0.863245
0.818936
0.7384
0.835812
0.892223
1.04221
1.07835
1.73788
1.39901
1.29243
1.7406
1.62942
1.3893
1.1875
1.0444
0.0297976
0.032724
0.0371687
0.0483878
0.0866173
0.174416
0.263507
0.320147
0.321884
0.337144
0.333116
0.289677
0.275172
0.256004
0.257501
0.254618
0.295091
0.42656
0.58031
0.732213
0.648009
0.72338
0.731548
0.689483
0.663377
0.028839
0.0289227
0.0373613
0.0824332
0.294498
0.381442
0.407855
0.477608
0.546025
0.614337
0.677765
0.723883
0.758003
0.782988
0.806929
0.825099
0.834493
0.842816
0.850286
0.857406
0.860167
0.851457
0.810227
0.739543
0.686986
0.0288059
0.0283972
0.0326054
0.113701
0.154585
0.204647
0.44157
0.810891
1.1144
1.2924
1.46844
1.60557
1.70222
1.81382
1.98978
2.16588
2.19626
2.2429
2.35769
2.38216
2.37972
2.29473
1.87648
1.45291
1.44124
0.0290824
0.0281071
0.032228
0.0775919
0.0753108
0.112685
0.0643658
0.0691177
0.0774914
0.0820695
0.0922711
0.117617
0.149468
0.194945
0.236812
0.249707
0.26789
0.27057
0.26808
0.269867
0.261772
0.254531
0.239669
0.297219
0.462099
0.0291235
0.0280715
0.0307075
0.057231
0.0506511
0.086346
0.0475359
0.0367191
0.0340983
0.0325871
0.0342941
0.0698264
0.0471734
0.040818
0.0345931
0.0295727
0.0282104
0.0281077
0.0282263
0.0284187
0.0285693
0.0287533
0.0324259
0.0516568
0.0804259
0.0291484
0.0281819
0.030127
0.0525049
0.0553883
0.0888377
0.0676885
0.082335
0.11148
0.0498836
0.041512
0.0926856
0.0574162
0.0402353
0.0381889
0.032511
0.0285033
0.0278866
0.0280254
0.028155
0.0283252
0.0284333
0.0292841
0.0347714
0.0422018
0.0291577
0.0282933
0.0298589
0.0552457
0.271132
0.383617
0.165424
1.23198
2.02579
0.250318
0.0861977
0.0779321
0.0736623
0.04691
0.0370224
0.0315384
0.0284387
0.0278379
0.0280497
0.0282304
0.0283276
0.0283701
0.0290328
0.0329818
0.038644
0.0292812
0.0281572
0.0297465
0.0565286
0.339872
0.315788
0.273892
1.11771
1.39793
0.297647
0.0447113
0.0291903
0.0279551
0.0278522
0.0280087
0.0281834
0.0282761
0.0283384
0.029189
0.0327632
0.0380751
0.0293908
0.0279995
0.0301387
0.0569356
0.0580723
0.0839532
0.342234
1.83367
0.94911
0.229055
0.0404626
0.0289741
0.0280301
0.0279922
0.0280626
0.0282371
0.0283164
0.0283393
0.0292027
0.0325798
0.0376376
0.0293475
0.0281205
0.0310254
0.0641345
0.0458016
0.0508886
0.298217
0.883746
1.00621
0.146905
0.0358767
0.0286461
0.0279412
0.0279772
0.028082
0.0282482
0.0282864
0.0283643
0.0290529
0.0323902
0.0373028
0.0290621
0.0286117
0.033587
0.0746818
0.0474691
0.0392001
0.0788788
0.971553
0.381796
0.275613
0.725657
1.02918
0.632045
0.0991448
0.0349955
0.0289467
0.028287
0.0280174
0.0280087
0.0281619
0.0282925
0.0283735
0.0289066
0.0325047
0.037479
0.0291149
0.0290479
0.038122
0.0934595
0.050577
0.0394846
0.298808
0.341288
0.114072
0.0965394
0.120234
0.129689
0.176104
0.162074
0.122975
0.0837663
0.0655787
0.0394222
0.0300297
0.0285564
0.0284669
0.0284818
0.0289074
0.0315834
0.0368128
0.0291722
0.0297572
0.0421069
0.108472
0.0502679
0.0336663
0.0625738
0.133781
0.0901948
0.128582
0.231652
0.196256
0.16823
0.230889
0.274235
0.220181
0.226511
0.119346
0.0527651
0.0368538
0.0332483
0.031835
0.0302493
0.0332672
0.0398886
0.0293038
0.0307295
0.0505427
0.131191
0.0540538
0.0313379
0.0304997
0.0391436
0.0485286
0.0766282
0.219669
0.124074
0.0718849
0.0606672
0.0705219
0.0749005
0.0840175
0.0628556
0.0532602
0.0436478
0.0377844
0.034156
0.0332869
0.037729
0.0469937
0.0295734
0.0336477
0.069499
0.163213
0.0605155
0.033334
0.0310563
0.0316938
0.0339262
0.0343474
0.0550584
0.0558237
0.0532781
0.037539
0.0339452
0.0315103
0.0314388
0.0306514
0.0380134
0.0430523
0.0482047
0.0434223
0.0456451
0.072297
0.105856
0.0301147
0.037579
0.0977905
0.211101
0.0674949
0.0378495
0.0343172
0.0332753
0.0328807
0.0332501
0.0396886
0.106139
0.105333
0.0489951
0.0396366
0.0377444
0.0366491
0.0369469
0.0402333
0.04608
0.0467622
0.0482666
0.0949814
0.32334
0.492131
0.0306556
0.0379061
0.0877658
0.309821
0.126765
0.0722343
0.069388
0.0989187
0.202988
0.299469
0.356174
0.438199
0.539043
0.527562
0.575317
0.587698
0.586054
0.621229
0.660302
0.637828
0.656355
0.65032
0.768449
0.854222
0.967403
0.0301506
0.0343194
0.065683
0.253254
0.235683
0.141365
0.127667
0.156452
0.195895
0.232111
0.270791
0.325665
0.428539
0.584593
0.931937
0.976548
1.17958
1.21625
0.988275
1.02303
1.08653
1.19928
1.20027
1.0946
1.0623
0.0304897
0.0324272
0.0453028
0.129391
0.22798
0.205594
0.192807
0.37808
0.544768
0.642288
0.670943
0.621588
0.617518
0.66122
0.799318
0.96977
1.195
1.48143
1.2209
1.14991
1.47774
1.45037
1.41009
1.21429
1.10261
0.0296926
0.0319125
0.038181
0.0618052
0.159738
0.235319
0.285534
0.370574
0.466025
0.525678
0.629972
0.623215
0.647284
0.67069
0.667417
0.702732
0.785559
1.05053
0.967539
0.929179
1.23386
1.35578
1.31872
1.13498
1.00153
0.0292088
0.031183
0.0352522
0.0463093
0.0884524
0.191879
0.260857
0.300576
0.2858
0.256205
0.267928
0.233804
0.230306
0.225339
0.219743
0.217733
0.230409
0.251933
0.294033
0.387659
0.528006
0.660193
0.762277
0.701695
0.687911
0.0287925
0.028877
0.0376648
0.0859197
0.278383
0.387868
0.432269
0.519834
0.5934
0.665773
0.728454
0.77475
0.807943
0.830194
0.846321
0.855083
0.855703
0.854598
0.851687
0.849475
0.843084
0.824028
0.773911
0.703304
0.646436
0.028744
0.0281933
0.032198
0.111755
0.139962
0.194863
0.460551
0.82546
1.20342
1.47895
1.70492
1.84996
1.95487
2.07924
2.17246
2.24369
2.25038
2.2755
2.30107
2.31107
2.28744
2.17882
1.76187
1.41086
1.362
0.0291171
0.0278072
0.0315013
0.0727451
0.0516492
0.0416231
0.0489991
0.066999
0.0844487
0.100694
0.109734
0.134293
0.159306
0.197445
0.229618
0.244266
0.25712
0.263532
0.256675
0.258687
0.252061
0.249434
0.234018
0.284117
0.444625
0.0292324
0.0277609
0.0301558
0.0547653
0.0409612
0.0337909
0.0320309
0.0307368
0.0310732
0.0309689
0.0301242
0.0308131
0.0304144
0.0293803
0.0283271
0.0278019
0.0275294
0.027398
0.0272802
0.0272824
0.0273481
0.0275764
0.0300469
0.0442119
0.068427
0.0292428
0.0278215
0.0294126
0.0489171
0.0387205
0.0356874
0.037326
0.0465378
0.0719928
0.0430765
0.0340005
0.0329808
0.0317727
0.0297366
0.0284715
0.0277964
0.0273552
0.0270857
0.026988
0.0270012
0.0270057
0.027098
0.0269463
0.0266242
0.0290587
0.0292624
0.0278821
0.028839
0.0473935
0.0529617
0.0607741
0.0755127
0.984244
1.61225
0.21273
0.0902393
0.0690449
0.0603179
0.0398594
0.0298162
0.0279384
0.0273668
0.0271058
0.0270104
0.0269844
0.027012
0.0270349
0.0268612
0.0252522
0.0258268
0.0293459
0.0278063
0.0287413
0.0483689
0.053205
0.0660164
0.168482
1.10137
1.28386
0.268677
0.0430776
0.0282809
0.0272929
0.0270466
0.0269682
0.0269794
0.026954
0.0270142
0.0268957
0.0250866
0.0253456
0.0294293
0.0277238
0.029285
0.0523045
0.0434716
0.0522696
0.232658
1.5838
1.79006
0.281825
0.0415028
0.0283347
0.0272564
0.0270084
0.0269538
0.0270003
0.0269472
0.026992
0.026859
0.0250767
0.025216
0.0293539
0.0278651
0.0303711
0.0604232
0.0442971
0.0460241
0.245181
2.03124
1.5068
0.194131
0.0362815
0.0280767
0.027169
0.0270096
0.0269646
0.0269405
0.0269954
0.0269754
0.0268339
0.0250421
0.0251591
0.0289739
0.0284145
0.0331524
0.0711647
0.0448111
0.0368016
0.0672378
0.755146
0.297533
0.238339
0.433049
0.840592
0.666275
0.0959694
0.032254
0.0278155
0.0272117
0.0270301
0.0269689
0.0269587
0.0269631
0.0270018
0.0267608
0.0250654
0.0252481
0.0290189
0.02885
0.0361397
0.0890666
0.0477654
0.0338165
0.0402338
0.0636301
0.052085
0.0401784
0.0413634
0.0492491
0.0521412
0.0394326
0.0342187
0.0314646
0.0303678
0.0282821
0.0272154
0.0270027
0.0270246
0.0270053
0.0269474
0.0251182
0.025432
0.0290813
0.0295813
0.0416525
0.105231
0.0498852
0.0312756
0.0318335
0.0417697
0.0378488
0.0379019
0.0423965
0.0416602
0.0377425
0.037751
0.0412441
0.0389179
0.0396858
0.0343217
0.0288371
0.0277074
0.027406
0.0272896
0.0271345
0.0258716
0.0269752
0.029238
0.0308473
0.0510404
0.12736
0.0542023
0.0312874
0.02948
0.0311962
0.0322552
0.0329989
0.041976
0.039214
0.033405
0.0305283
0.0306093
0.0308717
0.0313871
0.0302202
0.0286724
0.0283222
0.0276113
0.0275346
0.0278268
0.0298807
0.0351182
0.0294841
0.033879
0.0712043
0.160115
0.0590451
0.0332
0.0309367
0.0309358
0.0309018
0.0302462
0.0330287
0.0327739
0.0303388
0.0283759
0.0278441
0.027551
0.027501
0.0274141
0.0277765
0.0280507
0.0279148
0.028343
0.0306167
0.0676814
0.112222
0.0300665
0.0380477
0.102041
0.207481
0.0662963
0.0377096
0.0342112
0.0327039
0.0317191
0.0314587
0.0334341
0.0386955
0.0406464
0.0357366
0.034973
0.036464
0.0380651
0.0399587
0.0420223
0.0465828
0.0466157
0.0470274
0.107426
0.400195
0.587184
0.0306452
0.0382433
0.0900243
0.308444
0.124923
0.0707945
0.0663191
0.0900446
0.185969
0.296479
0.361333
0.421867
0.490875
0.577414
0.671458
0.73019
0.752053
0.784854
0.820043
0.817797
0.889804
0.843572
0.879496
0.933114
1.04454
0.0301007
0.0343787
0.0677132
0.262946
0.238391
0.138858
0.115325
0.126841
0.165616
0.213804
0.256613
0.297309
0.362014
0.415361
0.517139
0.651089
0.75458
0.909696
0.880093
0.881754
0.870049
0.861453
0.851825
0.829844
0.832053
0.0304656
0.0326046
0.0461183
0.137151
0.239107
0.208998
0.184373
0.18435
0.215668
0.286639
0.396619
0.444829
0.455006
0.461773
0.494505
0.564546
0.650088
0.843075
0.813266
0.885117
0.932809
0.951099
0.94365
0.79092
0.762253
0.0297075
0.0318141
0.0384149
0.0626507
0.170587
0.241504
0.276148
0.256209
0.274204
0.273618
0.321121
0.362487
0.37767
0.396719
0.403411
0.439228
0.459589
0.548651
0.567232
0.606479
0.637629
0.768824
0.855844
0.720706
0.682169
0.029154
0.0310567
0.0348346
0.0460728
0.0910978
0.206726
0.278191
0.280096
0.243801
0.199047
0.178429
0.159166
0.160471
0.157392
0.154926
0.147131
0.162234
0.165163
0.171849
0.190472
0.258021
0.386878
0.494158
0.460559
0.467805
0.028797
0.0289572
0.0379697
0.0884247
0.280971
0.396931
0.460832
0.55488
0.632725
0.711369
0.771339
0.816759
0.847705
0.866852
0.878965
0.883563
0.87983
0.874029
0.867166
0.860757
0.850711
0.826555
0.771768
0.699229
0.640505
0.0287386
0.0281691
0.0322331
0.110898
0.137943
0.203304
0.484435
0.870264
1.27822
1.58819
1.83481
2.02687
2.12798
2.21069
2.26327
2.31646
2.30674
2.31337
2.30027
2.29017
2.2552
2.13555
1.70757
1.3728
1.32616
0.0291389
0.0277325
0.0313409
0.0711849
0.0490347
0.0377432
0.0463188
0.0676477
0.0892404
0.109378
0.128224
0.146927
0.180003
0.201003
0.230944
0.24229
0.24964
0.255011
0.25366
0.255818
0.244563
0.241614
0.231422
0.279478
0.438103
0.0292844
0.0276589
0.0300042
0.0541325
0.040395
0.0304545
0.0293334
0.0292398
0.0300347
0.0299968
0.0290372
0.0284114
0.0284611
0.0282615
0.0277945
0.0276138
0.0274417
0.0273276
0.027263
0.027269
0.0273267
0.0275404
0.0298395
0.043266
0.0664016
0.0293129
0.0276711
0.0292285
0.0478626
0.0370887
0.0300433
0.0304434
0.035673
0.0500153
0.0377295
0.0316045
0.0292655
0.0290686
0.0285777
0.0278648
0.02741
0.0271943
0.0270315
0.0269536
0.0269764
0.0270095
0.0270955
0.0269261
0.0254145
0.0266985
0.0293451
0.0276978
0.028637
0.0445839
0.0390405
0.0347294
0.0504826
0.625999
1.06684
0.200854
0.102798
0.0731131
0.0547671
0.0361285
0.0290157
0.027625
0.0272476
0.0270486
0.0269665
0.0269477
0.0269951
0.0270147
0.0268273
0.0246209
0.0234292
0.0293953
0.027665
0.0285457
0.0451494
0.0407365
0.0397995
0.11534
2.06312
1.64515
0.247282
0.0401741
0.0280152
0.0272123
0.0270279
0.0269486
0.0269483
0.0269465
0.0269875
0.0268714
0.0246106
0.0229942
0.0294449
0.0276454
0.0290147
0.0500025
0.0419903
0.0434233
0.177434
3.83097
2.36519
0.249362
0.0397845
0.0281391
0.0272195
0.027027
0.0269621
0.0269837
0.0269341
0.026949
0.0268526
0.0246823
0.0229394
0.0293417
0.027828
0.0301561
0.0583183
0.0431958
0.0417916
0.212246
5.59461
1.77265
0.180422
0.0355938
0.0279823
0.0271565
0.0270426
0.0269563
0.0269169
0.02695
0.0269332
0.0268064
0.0246795
0.0229327
0.0289478
0.0283701
0.0330268
0.0698097
0.0443729
0.0347486
0.0517362
0.486805
0.230028
0.218082
0.416541
1.21755
0.53206
0.0834099
0.0312934
0.0276673
0.0271475
0.0270209
0.0269349
0.0269288
0.0269243
0.0269754
0.0267211
0.0246656
0.0229945
0.0289905
0.0287725
0.0358866
0.087258
0.0471373
0.0316431
0.0312475
0.036054
0.0391224
0.0344657
0.0349734
0.0418476
0.0418169
0.0321099
0.0285591
0.0276388
0.0272705
0.0270692
0.0269595
0.0269288
0.0269497
0.0269695
0.0268965
0.0246782
0.0232459
0.0290707
0.0295364
0.0408831
0.10438
0.0508193
0.0308864
0.0294276
0.0309202
0.0317502
0.0306857
0.0300365
0.03008
0.0298615
0.0288728
0.028121
0.0277122
0.0276126
0.0273968
0.0270157
0.0270105
0.0270285
0.0270551
0.0268632
0.0246547
0.0246506
0.029243
0.0310426
0.0517904
0.127263
0.0551349
0.0315423
0.0295016
0.0302162
0.0305732
0.030001
0.029956
0.0298479
0.0289684
0.0280823
0.0275508
0.0273583
0.0272374
0.0271662
0.0270297
0.0270705
0.0269666
0.0270506
0.0271695
0.0285829
0.0337795
0.0294968
0.0341742
0.073064
0.162516
0.058905
0.033332
0.031176
0.0309682
0.030596
0.0299581
0.0301033
0.0294719
0.028221
0.0275845
0.027387
0.0272313
0.0271385
0.0270583
0.0270893
0.0270654
0.0270814
0.027226
0.0294375
0.0730752
0.125727
0.0300995
0.0384602
0.10334
0.209771
0.0672116
0.0379626
0.0343526
0.0327835
0.031614
0.0310324
0.0315668
0.032679
0.0337555
0.0346083
0.0360463
0.0380758
0.0404769
0.0430186
0.0455345
0.0507056
0.0513227
0.0514993
0.128437
0.475741
0.675168
0.0307022
0.0388987
0.0924523
0.314192
0.127142
0.0713431
0.0653569
0.0863938
0.169137
0.283217
0.377742
0.449677
0.533893
0.658651
0.774654
0.866317
0.916264
0.973222
0.984274
0.992066
1.07642
1.03173
0.984421
1.01548
1.11443
0.0300853
0.0346275
0.0698349
0.271638
0.241705
0.136323
0.115883
0.120097
0.165747
0.197316
0.241043
0.304155
0.311569
0.370424
0.407334
0.424279
0.475402
0.544255
0.62862
0.602095
0.66431
0.650103
0.644744
0.632606
0.632363
0.0304847
0.0326904
0.0466242
0.142217
0.246624
0.218362
0.159847
0.147198
0.146087
0.159993
0.207269
0.249778
0.272083
0.293528
0.311504
0.323163
0.371079
0.429403
0.442422
0.45765
0.484781
0.471824
0.455552
0.402713
0.41123
0.0296941
0.0318026
0.0385303
0.0619038
0.171616
0.256889
0.249995
0.211947
0.183896
0.180245
0.182667
0.184534
0.189793
0.202198
0.218793
0.22728
0.227001
0.263644
0.24377
0.270616
0.272917
0.34599
0.335578
0.307206
0.316737
0.0291543
0.0310583
0.0348195
0.0457407
0.0910234
0.211662
0.281817
0.266858
0.225452
0.16808
0.140804
0.113906
0.101742
0.0934336
0.0925362
0.0919501
0.0918086
0.0906897
0.0898974
0.0938309
0.108751
0.173837
0.190848
0.203757
0.204993
0.0288015
0.0289979
0.0381532
0.0883433
0.287308
0.408341
0.481136
0.577189
0.651925
0.743725
0.799208
0.843737
0.873752
0.893483
0.905784
0.90898
0.904566
0.897647
0.888805
0.879419
0.867397
0.840265
0.783083
0.70804
0.6487
0.0287391
0.0281824
0.032206
0.111151
0.138575
0.211822
0.497374
0.87741
1.29033
1.62131
1.8832
2.0997
2.18509
2.26294
2.32654
2.34594
2.32335
2.32156
2.29244
2.26471
2.23331
2.08803
1.68265
1.31288
1.30867
0.0291377
0.0277286
0.0314556
0.0715933
0.0493153
0.0381895
0.0458983
0.067576
0.0930433
0.115808
0.138635
0.155402
0.185868
0.207841
0.231011
0.239202
0.248037
0.253305
0.253559
0.251841
0.245318
0.236921
0.23123
0.274945
0.4354
0.029283
0.0276238
0.0299603
0.0540352
0.0407597
0.0305683
0.028863
0.0287672
0.0293376
0.0292975
0.0286602
0.0281489
0.0281038
0.0279571
0.0276927
0.0275413
0.0273827
0.0273081
0.0272631
0.0272704
0.0273182
0.0275302
0.0298179
0.0435325
0.0672212
0.0293357
0.0275923
0.0291598
0.04742
0.0374344
0.0296401
0.0289489
0.0307998
0.0368925
0.0329831
0.0299435
0.0285363
0.028393
0.028128
0.0277114
0.027378
0.0271418
0.0270296
0.0269638
0.0269719
0.0269554
0.0270824
0.0269472
0.0258364
0.0272709
0.029371
0.0275745
0.0286479
0.0441581
0.038445
0.0321104
0.0366263
0.163901
0.251217
0.083059
0.0548897
0.0454878
0.0377209
0.0310779
0.0283333
0.027518
0.0271907
0.0270209
0.0269953
0.0269593
0.0269372
0.0269912
0.0268652
0.0249779
0.0239009
0.0294185
0.0275719
0.0285691
0.0442408
0.0396883
0.0358971
0.0612891
1.80389
0.964992
0.243452
0.335721
0.4139
0.221762
0.0717313
0.0320299
0.0277385
0.0271859
0.0270165
0.0269512
0.0269289
0.0269475
0.0269899
0.0269059
0.0250007
0.0234767
0.0294399
0.0276034
0.0290232
0.049208
0.0416048
0.0384333
0.0880262
2.64006
0.859851
0.256172
0.344842
0.381338
0.239615
0.0752678
0.0329699
0.027879
0.027204
0.027001
0.0269625
0.0269541
0.0269511
0.0269484
0.0268752
0.0250816
0.0234399
0.0293153
0.0278286
0.03023
0.0578665
0.0426092
0.0371742
0.10185
2.56888
0.515227
0.265357
0.380852
0.460088
0.224882
0.0668679
0.0317843
0.0277998
0.0271625
0.0270482
0.0269346
0.0268936
0.0269436
0.026958
0.0268602
0.0250547
0.0234321
0.0289388
0.0283697
0.0330264
0.0689599
0.0441768
0.0326405
0.0365897
0.133899
0.0890882
0.0812893
0.11513
0.172941
0.109587
0.0446139
0.029546
0.0275524
0.0271336
0.0269954
0.0269183
0.0269482
0.0269204
0.0269806
0.026761
0.025031
0.023485
0.0289843
0.0287555
0.0361535
0.0866024
0.0472934
0.0308839
0.0295294
0.0315296
0.0336674
0.0313441
0.0313245
0.0331492
0.0336304
0.0300285
0.0280477
0.0273903
0.0270682
0.0269763
0.0269386
0.0269516
0.0269288
0.0269714
0.0268959
0.0249843
0.0237193
0.0290573
0.0295672
0.0405794
0.103709
0.0515997
0.0308223
0.028957
0.0296411
0.0303579
0.0298003
0.029184
0.0290277
0.028917
0.0283088
0.0276252
0.0272305
0.0270394
0.0269607
0.0269221
0.0269534
0.0269775
0.0270217
0.0268263
0.0250504
0.0251692
0.0292435
0.0310732
0.0517875
0.127083
0.0557482
0.0317999
0.0296619
0.0299799
0.0301549
0.0296989
0.0291794
0.0288623
0.0283731
0.0278641
0.0274185
0.0271704
0.0270558
0.0269901
0.0269488
0.02696
0.0269554
0.0270311
0.0270849
0.0292548
0.0356188