/*--------------------------------*- C++ -*----------------------------------*\
  =========                 |
  \\      /  F ield         | OpenFOAM: The Open Source CFD Toolbox
   \\    /   O peration     | Website:  https://openfoam.org
    \\  /    A nd           | Version:  6
     \\/     M anipulation  |
\*---------------------------------------------------------------------------*/
FoamFile
{
    version     2.0;
    format      ascii;
    class       volScalarField;
    location    "10";
    object      k;
}
// * * * * * * * * * * * * * * * * * * * * * * * * * * * * * * * * * * * * * //

dimensions      [0 2 -2 0 0 0 0];

internalField   nonuniform List<scalar> 
230684
(
1.42013
1.29302
1.18049
1.38569
1.45027
1.94606
2.39873
3.62658
3.71726
3.87566
3.97282
4.13073
4.34766
4.65504
5.01344
5.3551
5.65742
5.92497
6.1782
6.40466
6.67856
6.80656
6.84167
6.6132
6.34529
1.43194
1.30376
1.16324
1.07602
1.32039
1.48184
1.63659
3.40741
3.44992
3.47666
3.56236
4.04418
4.78956
5.49237
6.41945
7.33932
7.69115
7.87783
8.20907
8.37281
8.49076
8.52481
8.15537
8.88877
7.68315
1.42554
1.32005
1.15214
0.885341
2.36084
2.0978
1.46094
3.58164
3.37607
3.0456
2.81775
2.65576
2.56553
2.90845
3.49317
3.404
3.20251
3.07023
2.93471
2.91846
2.86524
2.68087
3.28864
3.74465
3.55308
1.4197
1.30377
1.05614
1.14065
1.33282
3.07725
1.87762
2.22336
2.38869
2.9965
3.29246
3.63311
1.70089
1.66656
1.43227
1.98974
2.35575
2.52922
2.65246
2.6913
2.66207
2.58412
3.55459
3.77307
2.97253
1.41852
1.33112
1.16032
0.863378
1.17968
1.85706
2.09267
2.60714
3.27956
3.77549
3.60911
2.8268
1.71539
1.6562
2.42353
2.11376
2.51784
2.67435
2.69817
2.69797
2.7503
2.8181
4.03796
4.13322
3.18292
1.42192
1.31986
1.18101
0.821294
0.951852
1.65543
1.2146
1.25515
2.43334
2.26818
2.39897
2.28175
2.34191
2.6611
2.69601
2.62239
2.70225
2.73166
2.81601
2.96924
2.96417
2.80773
4.04155
4.27576
3.30551
1.42173
1.32226
1.18868
0.809513
3.44829
1.5573
1.11296
1.05654
1.19257
1.14986
1.05216
1.22353
1.40082
2.10514
1.94267
2.44305
2.87728
2.99771
3.01418
3.02426
3.04321
3.04836
4.45585
4.52987
3.48059
1.42316
1.32563
1.18563
0.885621
1.29253
1.57083
1.69601
6.33095
1.65406
1.27436
1.18961
1.16392
1.64086
3.71528
2.39894
2.05417
2.41075
2.68523
2.92753
3.10174
3.17041
3.17369
4.6038
4.62356
3.5418
1.4299
1.31591
1.18442
0.935562
1.2536
1.85444
2.39555
4.56146
1.42587
1.22371
1.13873
1.1561
3.77281
2.88328
2.28152
2.16165
2.37298
2.74274
3.06959
3.21028
3.21359
3.14168
4.50605
4.64027
3.55307
1.43884
1.29135
1.16493
0.959829
1.33239
1.91969
2.05836
1.72529
4.04204
2.63788
1.88061
1.5
2.50709
4.32015
4.05215
3.64926
3.23768
3.05044
3.05158
3.21087
3.3011
3.35762
4.7951
4.71066
3.58013
1.42937
1.2944
1.17365
0.993573
1.31734
1.70333
1.46061
1.71889
1.28982
1.25319
1.25395
1.36708
1.36271
1.36109
1.46012
1.50562
1.99607
2.69378
3.01391
3.05966
3.09924
3.07508
4.34212
4.18319
3.19843
1.4384
1.29205
1.15426
1.06901
1.45316
1.98256
1.47614
1.51867
1.76174
1.22741
1.13448
1.33845
1.20367
1.10059
1.07775
1.07946
1.13687
1.85546
1.9241
1.5335
2.02973
2.14272
3.85503
4.03304
3.09597
1.43684
1.29411
1.18161
1.13182
1.54179
1.88861
1.82485
2.92592
1.40549
1.36225
1.42018
1.65444
4.26986
1.67866
1.7228
1.6668
4.09824
3.52407
4.19263
1.48093
1.42118
2.18194
3.13677
2.42124
2.50996
1.44303
1.2747
1.20266
1.21325
1.6877
2.13658
2.32589
2.2616
2.38027
2.4561
2.44935
2.43964
2.1092
2.32443
1.98046
1.4153
2.2379
2.81705
3.84152
2.11875
3.23924
1.3612
1.30607
1.47944
2.12866
1.43777
1.28007
1.21224
1.31215
1.80258
2.16461
2.42136
2.53956
2.57926
2.68371
2.79479
5.0979
1.57583
1.51105
2.92634
3.57512
2.64569
2.68736
3.04181
2.66891
2.89031
2.09471
2.76486
1.96038
2.9894
1.43745
1.28229
1.206
2.336
2.55351
2.72975
3.16513
3.2401
3.17827
3.12969
2.50224
3.49705
1.72859
1.72009
2.35971
2.06463
1.25165
3.99545
1.9992
1.76977
1.352
1.37411
1.31915
3.89587
3.99838
1.44282
1.27456
1.30649
2.03348
2.39522
2.50539
2.27797
1.97174
2.52583
2.10451
1.62126
1.60871
2.19997
1.76915
1.76248
1.43836
1.30886
2.66383
1.59406
1.81089
1.69374
2.9219
3.18088
4.87678
5.29136
1.44284
1.27513
1.24941
1.44316
1.7299
1.74885
1.66843
2.10856
2.72622
3.32365
2.46324
1.60164
1.38581
1.50965
1.94438
1.63284
1.48687
2.21255
4.27077
1.48039
1.48854
4.01518
4.34283
4.78256
5.20487
1.42991
1.30816
1.21235
1.25263
1.41187
1.62755
1.59182
2.64175
2.92476
4.09771
3.35762
5.50682
1.86828
3.00012
2.54991
2.26298
2.04068
2.15462
3.28588
1.83309
3.9098
4.2145
4.21
4.19855
4.35293
1.4241
1.32134
1.20677
1.2015
1.27609
1.43139
1.69688
1.96458
2.16382
2.32548
2.38738
2.32352
2.11186
2.533
2.57712
2.52978
2.37607
2.03209
2.02268
2.45984
3.58639
3.66411
3.56844
3.44316
3.37916
1.47197
1.41318
1.50163
2.26171
4.77432
6.93484
5.90622
6.60002
6.98063
7.45393
7.87136
8.17255
8.90459
9.67991
10.2689
10.6433
10.998
11.2627
11.6324
11.8748
12.9316
12.6536
12.8928
11.9936
11.4742
1.47925
1.40553
1.40405
2.72335
5.73142
4.23404
3.39335
7.88004
9.10357
10.1038
10.9291
12.2668
13.7947
15.7287
17.7209
19.3405
20.145
20.9641
21.4218
21.9358
22.3887
22.0818
20.148
16.8454
15.7136
1.47896
1.40542
1.41192
2.54656
10.9115
9.33254
3.96833
3.96878
4.7093
5.45727
5.88224
7.12991
7.08054
6.96118
6.93841
6.6719
6.6813
6.72584
6.63874
6.35431
5.57053
5.67732
6.49692
1.47163
1.42703
1.41252
2.38126
4.94661
3.34777
3.41475
3.91552
4.98221
6.9451
3.03193
2.24506
2.76001
3.97875
4.65122
4.82375
4.8354
4.81912
4.3522
3.91468
3.80615
1.4744
1.41995
1.36317
2.08079
3.99777
7.34154
5.59924
4.62805
4.61841
4.6532
4.78067
6.51787
4.04524
4.15471
4.18003
4.80508
4.9011
5.06523
5.10645
4.71949
4.05043
3.70108
1.47514
1.42431
1.37714
2.03391
6.71431
7.66602
4.12173
4.00188
6.94677
5.79319
3.57144
2.36957
2.50896
4.03479
5.03238
5.36663
5.25411
5.14798
4.66311
4.05749
3.73023
1.47413
1.42086
1.37436
2.11585
6.7421
0.985228
2.74151
4.33828
3.3358
3.76632
4.19876
4.54605
4.89682
5.12905
5.34259
5.38461
4.98693
4.19114
3.81229
1.47568
1.41105
1.38867
2.16192
4.16865
4.32
3.23744
4.18972
2.37721
3.14474
3.15786
3.75205
4.55783
4.80962
5.14212
5.41441
5.46669
5.58424
5.09783
4.13913
3.82221
1.48914
1.40598
1.40099
2.41021
2.8067
4.13714
6.98797
3.93948
3.69883
3.23135
3.66008
4.38193
4.90004
5.31813
5.46654
5.40233
5.44649
4.94782
4.06221
3.81755
1.48515
1.415
1.44333
2.73396
2.91618
3.76604
4.99077
7.64513
5.79223
3.53867
1.88859
1.52123
8.19425
6.36349
4.24253
4.06117
4.16185
4.55114
4.81293
5.31965
5.49532
5.74422
5.18973
4.12316
3.81245
1.48578
1.42208
1.53115
3.12508
3.62416
3.33694
7.21153
1.47062
3.63435
4.54089
3.47901
3.11625
3.64224
3.88825
4.20374
4.84319
5.26959
5.27854
4.65733
3.6099
3.455
1.47186
1.44273
1.67312
3.56653
3.21736
4.00285
4.19377
3.38503
2.20681
2.98486
2.58124
5.3256
3.14907
3.15175
3.22532
3.64189
3.46264
3.31875
1.47535
1.4829
1.77557
4.12497
3.23446
3.75796
3.52461
6.68853
3.85073
6.68433
3.38641
2.21201
1.14159
3.2664
3.5152
1.75902
2.75622
3.13249
3.1614
3.48505
2.75011
1.48169
1.51937
1.92082
4.75917
3.51259
3.85023
4.49907
4.59189
5.26038
4.29901
3.9113
6.49306
5.07992
4.86991
2.53825
2.78605
2.72826
3.7591
7.91126
2.94627
5.01723
2.17577
2.20106
1.49089
1.56712
2.08953
5.4372
3.74408
4.10238
4.51356
4.83114
5.09837
5.08494
5.24749
10.4961
7.69404
2.9632
2.76913
4.31027
5.9471
5.46239
4.83536
3.79141
2.10261
5.12697
2.83136
5.01959
1.50767
1.57801
2.09127
5.99818
4.29161
4.23477
4.40578
4.64706
5.17605
5.34365
5.18395
7.44967
6.41282
4.01389
3.48987
4.46068
3.05483
7.68223
8.91213
1.49797
1.5099
1.93784
4.4354
4.76846
3.79487
3.54306
4.03394
4.69653
4.64184
4.59845
10.9374
0.561712
1.82645
9.12058
4.36764
5.38452
4.66433
7.48201
9.71566
12.13
12.2975
1.49159
1.49358
1.63507
2.89348
4.06787
3.74507
3.30154
13.5194
7.72227
6.55423
5.17619
4.65001
5.43013
6.76847
5.08895
4.43755
15.1783
5.86786
3.95482
11.4018
11.8475
12.1981
12.2966
1.47394
1.4962
1.54839
1.99889
3.16262
3.93961
4.42299
9.53444
8.31297
8.47471
7.35419
9.69473
6.21699
8.73391
8.43819
8.07288
17.206
9.47607
9.69518
11.1731
10.6826
10.2488
10.2555
1.46444
1.48218
1.56655
1.74817
2.46408
3.49595
4.41168
4.98365
5.12095
5.34907
4.90042
4.84772
4.64401
4.48694
4.37197
4.05508
4.13637
6.44533
7.1478
7.99405
8.12017
7.98263
7.49994
7.17874
7.15941
1.46775
1.46432
1.66905
2.83741
6.14866
8.30751
7.1072
8.05002
8.80018
9.5558
10.0644
10.4444
11.0734
11.4246
12.0182
12.0709
12.6068
12.6881
12.7825
12.9041
13.0978
13.0943
12.8134
12.0913
11.5627
1.4679
1.45238
1.5507
3.45185
4.99429
5.78847
7.12848
10.7123
12.8138
13.9215
14.8734
16.2734
17.8826
19.7604
21.4291
22.6668
23.6103
24.0391
24.2236
24.4467
24.6127
24.1966
21.7015
18.3945
17.6741
1.47558
1.44139
1.5525
2.80396
5.82916
5.40255
2.46708
2.62728
2.33807
2.33288
2.62399
3.18128
3.88103
4.71063
4.95905
5.14131
5.18424
5.1083
5.06619
5.0151
4.99468
4.93913
4.71339
5.24978
7.66369
1.47567
1.4422
1.51588
2.24203
3.0842
5.67497
2.49006
2.01449
1.80677
1.7611
2.07531
4.98854
2.42766
2.55926
2.0587
1.64821
1.61008
1.72085
1.79779
1.82499
1.84472
1.85006
1.88925
2.26544
2.82054
1.47599
1.44377
1.50035
2.21344
2.96961
4.22284
3.28171
2.90247
2.87016
2.10406
2.21175
6.14138
2.83463
2.35353
2.40419
1.86687
1.66103
1.72618
1.83594
1.8397
1.8673
1.86957
1.8712
1.99044
2.26878
1.47746
1.44936
1.49996
2.4179
8.91174
9.25888
2.93778
2.15563
3.14759
2.77415
2.21774
2.42806
1.81344
1.6095
1.69787
1.8409
1.87395
1.87155
1.87494
1.84942
1.94601
2.17504
1.48251
1.44365
1.49542
2.5434
15.798
3.66357
6.29548
3.71632
1.91279
1.70837
1.70329
1.73979
1.79694
1.84333
1.86943
1.87905
1.87466
1.96046
2.13187
1.48642
1.43768
1.50128
2.3408
2.88615
2.94282
3.6506
2.70852
3.72663
2.65849
1.79333
1.72428
1.77986
1.79783
1.83308
1.86464
1.88408
1.8728
1.86419
1.90548
2.12403
1.48514
1.44313
1.52712
2.48937
2.03927
2.29528
5.97262
1.25078
5.03015
2.66305
1.77229
1.70037
1.75201
1.80224
1.83693
1.87487
1.87192
1.86875
1.84884
1.88979
2.10299
1.47674
1.46213
1.60553
2.75767
2.06095
1.91625
3.16258
9.01601
4.31343
2.76983
4.01036
3.36172
6.85542
3.01574
1.84989
1.70592
1.72643
1.75312
1.78336
1.84839
1.8773
1.89872
1.86921
1.90074
2.10837
1.4792
1.47842
1.73514
3.16748
2.28594
2.30576
13.5066
4.14227
2.05782
2.09763
2.80437
3.23195
4.84314
5.03525
4.31372
3.07888
2.61214
1.88226
1.79028
1.86068
1.87364
1.86946
1.83602
1.82209
2.02569
1.48171
1.50872
1.84728
3.53494
2.16717
1.93407
4.62287
3.73591
2.54122
2.20104
2.18123
2.58868
2.51445
2.47032
2.05775
2.09889
2.73302
2.89159
2.31126
2.11708
1.94651
1.85172
1.75227
1.76707
2.08713
1.48634
1.53238
1.99925
3.95428
2.17509
1.765
1.85245
2.66972
2.75943
7.27395
3.07449
2.9429
2.85622
2.48466
2.47573
2.54002
3.15991
2.28745
3.27428
2.38518
2.10072
1.91792
1.76334
1.70021
1.88119
1.4939
1.59112
2.25669
4.43286
2.35986
1.78486
1.81465
1.90159
2.11067
2.02923
2.53782
3.48006
3.06657
2.32685
2.09645
1.87031
1.81192
1.76267
3.26866
2.66462
3.30672
2.02806
2.08424
2.05937
2.44243
1.50632
1.6624
2.59939
5.10779
2.55395
1.94254
1.91267
1.9519
1.97519
1.98222
2.24655
7.90792
4.11964
2.4444
2.07435
1.94443
1.82239
1.91971
2.13572
2.32656
2.1224
2.10467
2.65164
5.0664
6.92501
1.52152
1.6852
2.53154
6.37249
3.72298
2.81259
2.81625
3.4257
4.89671
5.69934
6.18014
7.5052
5.36696
5.92275
7.31599
6.03691
4.98446
7.12805
7.9375
7.55858
7.47592
7.30888
7.9506
11.4678
12.5764
1.5121
1.60645
2.27503
5.36639
5.37943
3.85446
3.47808
4.03224
5.30628
5.33489
5.56651
9.05778
7.90668
9.70665
11.6108
10.3969
11.8205
16.0797
13.218
11.8398
12.2635
15.7478
16.8871
16.1181
15.3695
1.51601
1.57016
1.85965
3.40199
4.90001
4.34981
4.11809
10.3451
7.81797
10.2966
8.30316
7.41104
7.21853
9.50385
15.122
17.395
18.4139
22.9008
14.693
13.7367
15.8508
18.7338
17.8915
16.9187
15.6985
1.48999
1.54483
1.70353
2.26598
3.93293
5.17906
5.83305
12.0452
11.5305
10.9063
10.4654
10.0458
9.2403
10.356
11.3031
12.9089
14.2517
18.7742
13.2537
15.8202
18.9468
18.2906
16.7147
15.005
13.8081
1.47846
1.52238
1.67864
1.90781
2.98027
4.65303
5.64045
6.32259
6.24251
6.34157
6.00808
5.27992
5.01385
5.01854
4.93956
4.84521
5.45543
7.13367
9.16847
10.719
10.6315
11.3766
11.4441
10.8909
10.491
1.46985
1.48348
1.7594
2.99757
6.79168
8.22387
8.70977
9.23463
10.1528
11.068
11.6091
12.0475
12.3498
12.8289
12.9751
13.0669
13.1304
13.1033
13.0423
12.9944
12.9523
12.7925
12.3465
11.6226
11.0178
1.46809
1.46435
1.59714
3.56782
4.28585
5.13386
8.47758
12.3829
15.2011
16.8731
17.9402
19.1999
20.568
21.9138
23.3176
23.9992
24.2734
24.4821
24.3684
24.3761
24.3202
23.7014
20.8385
18.1153
17.6953
1.4681
1.45499
1.57961
2.78693
2.6168
2.67404
2.17536
2.28612
2.38805
2.48738
2.58212
2.94339
3.53141
4.17916
4.50273
4.70973
4.80968
4.73852
4.68588
4.66306
4.58142
4.51802
4.39675
5.03497
7.99489
1.47445
1.44886
1.53201
2.28788
2.04165
2.43356
1.8833
1.67316
1.62398
1.59506
1.64982
2.14008
1.81015
1.70861
1.57456
1.48365
1.45954
1.45641
1.45597
1.45784
1.46126
1.46857
1.54701
1.84773
2.3595
1.47434
1.45229
1.52412
2.17782
2.09031
2.35564
2.16688
2.47633
2.77453
1.96025
1.82873
2.51623
1.96999
1.69504
1.6226
1.52034
1.45869
1.4498
1.45159
1.45249
1.45478
1.45856
1.47719
1.50992
1.62156
1.4751
1.45463
1.51199
2.25526
4.15158
3.81517
3.01395
9.92716
7.97841
2.92996
2.1048
2.19217
2.17013
1.8124
1.61411
1.51251
1.45922
1.44925
1.45256
1.45373
1.45491
1.45632
1.46936
1.46385
1.52812
1.47876
1.45095
1.51031
2.28437
4.97476
3.47919
3.91617
4.31182
5.88238
3.47187
1.68895
1.48327
1.45298
1.44831
1.4503
1.45225
1.45358
1.45554
1.46836
1.45358
1.50155
1.48171
1.44636
1.51531
2.27526
2.12806
2.53009
5.0664
1.92891
4.92662
2.83781
1.65734
1.47935
1.45343
1.45006
1.45072
1.45282
1.45334
1.45504
1.46878
1.44555
1.49056
1.47433
1.45791
1.56197
2.45159
1.92509
2.11155
5.79541
1.51926
5.69844
2.54011
1.61594
1.47177
1.45097
1.4501
1.45076
1.45283
1.45355
1.45536
1.46676
1.44219
1.48549
1.47616
1.47018
1.64353
2.69334
1.9446
1.77037
2.67153
7.43978
3.71576
2.40542
3.55061
3.38055
5.98082
2.39089
1.59039
1.47193
1.45722
1.45112
1.45043
1.45272
1.45414
1.45591
1.46552
1.44683
1.49169
1.4785
1.49026
1.73413
3.11495
2.00922
1.76492
3.99765
3.89783
2.48703
2.14397
2.22268
2.36308
2.99931
2.69698
2.30961
1.9756
1.83675
1.55405
1.47542
1.46373
1.45968
1.45814
1.46839
1.4447
1.49204
1.48261
1.5241
1.9415
3.46836
1.9953
1.60234
2.16042
2.59837
2.12507
2.30382
2.73407
2.61043
2.61836
3.00613
3.21233
2.82989
2.85029
2.00516
1.70778
1.60348
1.52298
1.49567
1.48225
1.46064
1.53061
1.48861
1.55247
2.08527
3.86262
2.08435
1.54772
1.5359
1.72125
1.84782
2.16654
2.86352
2.4947
1.91772
1.79922
1.96007
1.97218
1.96254
1.72333
1.7894
1.71767
1.57939
1.53167
1.52865
1.54761
1.6523
1.49827
1.63158
2.44957
4.36171
2.24652
1.61728
1.55625
1.57216
1.62493
1.6104
1.91417
1.99861
1.83641
1.61968
1.56943
1.51856
1.51033
1.49717
1.68657
1.67941
1.68215
1.65206
1.67278
2.23643
2.87842
1.5112
1.71478
2.92397
5.1271
2.44974
1.77635
1.66652
1.62235
1.60422
1.60813
1.79479
2.98203
2.52858
1.85234
1.67235
1.66618
1.65692
1.66747
1.75457
1.87886
1.85242
1.87419
2.86377
6.55928
8.77794
1.52691
1.73359
2.81615
6.57186
3.69699
2.66595
2.62962
3.35164
5.09758
6.20603
6.79194
7.38739
7.84803
8.46945
9.41505
9.66305
9.73499
10.0955
10.7409
10.585
10.7191
10.6754
12.5125
13.4877
14.7199
1.51694
1.6495
2.47601
5.7796
5.61595
3.97351
3.77544
4.30386
4.92895
5.51735
5.95543
6.50998
7.61051
10.0873
14.2025
14.9958
17.4325
17.1161
14.8936
15.4602
16.4752
16.3507
16.5994
15.7614
15.5443
1.52336
1.59361
1.96073
3.75062
5.48606
5.05235
4.77019
6.95181
9.06757
9.69653
9.96983
9.89412
9.93268
10.6909
13.1943
15.6922
18.0934
19.9948
17.6265
17.1511
19.4588
19.6645
18.847
16.9809
15.7052
1.48147
1.57997
1.75455
2.4152
4.47785
5.89047
6.56381
7.1789
8.52968
9.08091
9.82675
10.0001
10.0574
10.2083
10.9234
11.1315
12.5099
15.6065
14.9519
15.0182
17.3679
18.0328
17.4893
15.8454
14.3998
1.48149
1.54067
1.69382
1.96129
3.28071
5.42915
6.5458
7.00348
6.72514
5.98382
5.8774
5.47971
5.16758
4.97278
4.76695
4.87655
5.11778
5.45184
6.25412
8.13523
10.1877
11.8028
12.551
11.9531
11.4706
1.47101
1.49343
1.80662
3.16627
6.62926
8.50626
9.46344
10.2401
11.259
12.2151
12.5878
13.156
13.3369
13.4796
13.5543
13.5679
13.494
13.373
13.2287
13.1081
12.9834
12.7308
12.1882
11.4082
10.7616
1.46837
1.46658
1.6135
3.5562
4.11898
5.23023
9.2185
13.3279
16.615
18.918
20.2273
21.4308
22.604
23.5606
24.3359
24.6798
24.7247
24.5881
24.328
24.2548
24.0282
23.3521
20.3123
17.4434
17.4668
1.46752
1.45583
1.58245
2.70904
2.09898
1.8432
2.00576
2.31889
2.548
2.72626
2.8265
3.11406
3.61778
4.16236
4.38072
4.53398
4.73492
4.7063
4.54154
4.54416
4.47186
4.49152
4.36591
4.93925
8.08879
1.47423
1.44936
1.53593
2.28588
1.8018
1.63001
1.58415
1.54829
1.55956
1.55377
1.52799
1.5475
1.53387
1.50187
1.46938
1.45519
1.44718
1.44276
1.44042
1.44024
1.44237
1.44918
1.51719
1.77158
2.26416
1.47419
1.45149
1.52153
2.1417
1.75498
1.66165
1.71164
2.00979
2.31571
1.84034
1.63304
1.61158
1.57284
1.5125
1.47269
1.45407
1.44247
1.43601
1.43361
1.43389
1.43438
1.43724
1.43661
1.41297
1.46543
1.47469
1.45288
1.5051
2.07373
2.09812
2.12231
2.61424
9.41771
6.75924
2.67717
2.10143
2.05663
1.9585
1.68181
1.50268
1.45776
1.44278
1.43637
1.43414
1.43374
1.4344
1.4351
1.43177
1.36641
1.36943
1.47732
1.45058
1.50217
2.08771
2.09819
2.28484
4.22862
5.64698
6.033
3.23919
1.64757
1.46285
1.44032
1.43511
1.43299
1.43361
1.43305
1.43417
1.43204
1.36824
1.34767
1.47948
1.44815
1.51542
2.20876
1.87943
2.17316
5.07682
1.83932
6.71035
2.90426
1.64765
1.46549
1.43965
1.43416
1.43318
1.43377
1.43277
1.43363
1.43097
1.37124
1.34319
1.47307
1.46009
1.56877
2.40009
1.89163
1.97988
5.52303
2.79908
6.74565
2.61847
1.6024
1.46017
1.43713
1.43451
1.43325
1.43267
1.43347
1.43383
1.43024
1.37099
1.34182
1.47527
1.47004
1.65581
2.65842
1.89095
1.70871
2.29987
6.00232
3.09109
2.10678
1.91239
2.91065
5.79666
2.24251
1.54291
1.4534
1.43816
1.43486
1.433
1.43315
1.43308
1.43419
1.42853
1.36835
1.34428
1.47726
1.49254
1.75379
3.07148
1.94251
1.62558
1.81716
2.22611
2.00417
1.68834
1.68988
1.868
1.94562
1.68393
1.56306
1.50858
1.48825
1.45191
1.43663
1.43441
1.4348
1.43455
1.4332
1.36304
1.35761
1.48219
1.52746
1.9515
3.44887
1.98558
1.54787
1.5887
1.79228
1.7004
1.66439
1.71689
1.72898
1.65119
1.6157
1.63972
1.60761
1.61082
1.52427
1.46248
1.45224
1.44312
1.44008
1.43964
1.38795
1.40438
1.48957
1.56796
2.13156
3.83803
2.08752
1.54717
1.5074
1.56304
1.58436
1.60062
1.74166
1.70843
1.57618
1.50901
1.50714
1.50401
1.50411
1.48067
1.46952
1.46912
1.44626
1.4461
1.46154
1.50542
1.62502
1.49946
1.65346
2.54404
4.4092
2.23687
1.61545
1.55574
1.55404
1.55194
1.53161
1.61143
1.59354
1.51699
1.46851
1.45714
1.449
1.44754
1.44568
1.46031
1.46058
1.45378
1.46711
1.53903
2.36535
3.21035
1.51319
1.73957
3.05202
5.1666
2.43209
1.77583
1.66728
1.61241
1.57968
1.57051
1.63369
1.794
1.78858
1.66163
1.63374
1.67236
1.70782
1.74545
1.7989
1.87854
1.87545
1.8906
3.20486
7.73696
10.2287
1.52964
1.75711
2.91734
6.67401
3.70795
2.64326
2.58111
3.20197
5.02104
6.44403
7.28466
8.07474
8.99625
10.0448
11.0907
11.6919
12.0206
12.5151
12.9869
13.324
13.5759
13.2789
14.0574
14.6725
15.9906
1.51841
1.66438
2.56538
5.9613
5.697
4.05623
3.69291
4.10162
4.8073
5.71279
6.2704
6.78497
7.54474
8.07336
10.4723
12.3858
13.8509
15.272
14.5998
14.6736
14.6522
14.1978
13.9954
13.7398
13.8004
1.525
1.59916
2.01198
3.92434
5.76939
5.34355
4.9642
4.91492
5.40541
6.763
7.90045
8.39649
8.52786
8.73151
9.47933
10.9389
12.3625
14.3386
13.9844
14.5532
14.3851
15.4222
15.0418
13.0413
12.6102
1.47894
1.58928
1.79961
2.50379
4.75248
6.31101
6.56966
6.31037
6.53887
6.50047
7.00304
7.386
7.54373
7.68307
8.003
8.13945
8.69946
9.52206
9.84484
11.0937
11.6138
13.326
13.4303
11.7997
11.3242
1.48222
1.54547
1.69744
1.99471
3.48085
5.85169
7.11443
7.1936
6.55238
5.36396
5.04072
4.5767
4.18379
4.07406
3.89551
3.86433
3.92977
4.11839
4.27676
4.99408
6.69107
8.56973
9.73054
9.28802
8.96333
1.47152
1.49604
1.8221
3.21513
6.68075
8.79158
10.107
11.006
12.1158
12.8207
13.3478
13.6724
13.8802
13.9859
14.0062
13.9562
13.8027
13.635
13.4704
13.3311
13.1779
12.8904
12.2938
11.4823
10.7954
1.46841
1.46634
1.6151
3.53035
4.10098
5.55345
9.82364
14.0216
17.3589
20.0021
21.6268
22.8736
23.906
24.5009
25.0096
25.1417
25.0094
24.7505
24.501
24.3855
24.1414
23.4118
20.2862
17.251
17.3731
1.46744
1.45542
1.58307
2.68776
2.04134
1.74935
1.96263
2.32345
2.59381
2.86802
3.14054
3.37653
3.79198
4.17728
4.31878
4.50964
4.66105
4.5759
4.57753
4.6136
4.52359
4.53939
4.38697
4.95213
8.14214
1.47444
1.44758
1.53448
2.27704
1.78748
1.52756
1.5019
1.50079
1.52696
1.52316
1.49207
1.47499
1.47757
1.46992
1.45579
1.45015
1.44462
1.44145
1.44008
1.44015
1.44192
1.44856
1.51343
1.76949
2.26124
1.47492
1.44792
1.51764
2.14234
1.71382
1.51811
1.53748
1.71784
1.96211
1.71773
1.56057
1.49863
1.49535
1.47981
1.45751
1.44572
1.43981
1.43527
1.43276
1.43317
1.43355
1.43679
1.43527
1.39837
1.43871
1.47664
1.44737
1.50028
2.00183
1.75755
1.64744
2.10597
7.0393
5.03191
2.68385
2.17592
2.00862
1.84207
1.60386
1.48291
1.44953
1.43985
1.43488
1.43339
1.43278
1.43357
1.43419
1.42949
1.35612
1.33699
1.47745
1.447
1.49753
2.00642
1.80726
1.81759
3.6058
9.56029
4.99574
2.53736
1.59112
1.45613
1.43834
1.43486
1.43243
1.43282
1.43283
1.43347
1.43069
1.3617
1.31837
1.47872
1.44702
1.51238
2.16541
1.84249
1.91358
4.68626
3.12473
6.19186
2.65414
1.61591
1.46021
1.4389
1.43395
1.43301
1.43327
1.43247
1.43291
1.43009
1.36439
1.3152
1.47251
1.46061
1.56888
2.36666
1.86232
1.8467
4.85816
4.90487
5.90802
2.49734
1.58275
1.45746
1.43719
1.43457
1.43316
1.43173
1.43268
1.43258
1.42859
1.36427
1.31495
1.47469
1.47
1.66009
2.64057
1.87455
1.65089
1.99773
4.57567
2.5965
2.06212
1.85866
4.2081
4.15581
2.01863
1.52021
1.44995
1.43658
1.43444
1.43254
1.43242
1.43238
1.43343
1.42618
1.36274
1.31758
1.47664
1.49105
1.74825
3.04214
1.92525
1.56006
1.55894
1.71682
1.74584
1.59247
1.60111
1.74469
1.75695
1.56304
1.47494
1.44955
1.43991
1.43519
1.43307
1.43235
1.43291
1.43358
1.43196
1.35531
1.33006
1.48228
1.52786
1.92342
3.42091
1.99948
1.53262
1.50456
1.55799
1.57623
1.54124
1.52212
1.52468
1.51835
1.48523
1.46074
1.45041
1.44719
1.44101
1.4343
1.43498
1.43527
1.43589
1.43554
1.37622
1.38587
1.49051
1.57764
2.16251
3.84956
2.10863
1.55358
1.50856
1.53261
1.54141
1.52412
1.5239
1.51854
1.49067
1.46329
1.44877
1.44303
1.44013
1.43711
1.43551
1.43729
1.4335
1.43601
1.44375
1.50141
1.65002
1.501
1.6674
2.60995
4.49554
2.24503
1.62073
1.56324
1.55516
1.54306
1.52339
1.52858
1.50729
1.46788
1.45016
1.44514
1.44136
1.43926
1.43648
1.43739
1.43661
1.43639
1.44159
1.51315
2.48308
3.51545
1.51514
1.7544
3.10379
5.20146
2.45075
1.78396
1.67193
1.6153
1.5773
1.55756
1.57476
1.60475
1.62398
1.63068
1.65507
1.70114
1.75126
1.80084
1.86769
1.93709
1.94892
1.97057
3.55896
8.7338
11.377
1.53187
1.77708
2.98841
6.7412
3.71871
2.6722
2.56406
3.08197
4.8429
6.53031
7.63026
8.69876
9.91054
11.312
12.3189
13.1579
13.8336
14.4329
14.8153
15.3501
15.8582
15.4337
15.4446
15.7585
16.7747
1.52193
1.6704
2.62814
6.06184
5.70924
4.00401
3.73084
4.08821
4.59704
5.6865
6.36172
7.2555
7.43389
7.91388
8.45093
9.44139
10.3788
11.2966
11.5964
12.2286
12.5121
11.7379
11.604
11.5778
11.6764
1.52721
1.60522
2.03297
3.99506
5.89173
5.49156
4.64617
4.41236
4.41666
4.70762
5.51395
6.19004
6.45693
6.76255
6.99738
7.43802
7.93721
9.11095
9.12375
9.20322
9.28694
10.1933
9.57529
8.57701
8.54746
1.49047
1.59016
1.8128
2.52295
4.84612
6.5064
6.4278
5.72259
5.3238
5.13198
5.08792
5.22046
5.21762
5.27134
5.33163
5.28699
5.70403
5.76195
5.53146
5.90705
6.32971
7.57654
7.27235
6.81831
6.91996
1.483
1.54432
1.71598
2.0453
3.56633
5.94612
7.35898
7.23722
6.36111
5.23779
4.29907
3.77148
3.27705
3.1363
2.87545
2.92425
2.87768
2.74072
2.85639
3.00883
3.7611
5.01225
5.23061
5.18145
5.41588
1.4715
1.49581
1.82071
3.22291
6.78937
9.05079
10.5561
11.5134
12.4939
13.3775
13.7538
14.0419
14.2359
14.3692
14.3897
14.3256
14.1676
13.9866
13.8106
13.6446
13.4571
13.1454
12.5136
11.6253
10.9309
1.4684
1.4663
1.61251
3.50572
4.13123
5.85924
10.211
14.3815
17.6365
20.3524
22.193
23.5354
24.5628
25.173
25.4105
25.3977
25.1856
24.9176
24.6663
24.4879
24.2068
23.4289
20.3308
17.1748
17.3222
1.4674
1.45582
1.58471
2.70932
2.05356
1.7634
1.95198
2.32374
2.65534
2.94672
3.24783
3.53799
3.96559
4.25885
4.37883
4.54552
4.6367
4.57146
4.64372
4.63503
4.51652
4.50081
4.45549
4.93268
8.1592
1.47432
1.44697
1.53745
2.26972
1.79599
1.52849
1.48547
1.48486
1.50473
1.50185
1.4802
1.4663
1.46611
1.46069
1.45242
1.44824
1.44361
1.44126
1.44
1.44036
1.44183
1.44864
1.51358
1.78907
2.29974
1.47527
1.44546
1.51712
2.12816
1.72228
1.50253
1.48946
1.55827
1.71065
1.60409
1.51604
1.47704
1.4748
1.46633
1.45293
1.4436
1.43793
1.43473
1.43293
1.43338
1.43308
1.43602
1.43624
1.41865
1.47001
1.47782
1.44278
1.4959
1.98584
1.73503
1.57794
1.7338
3.80199
3.29306
2.13349
1.7902
1.70127
1.62606
1.52461
1.46829
1.44631
1.43827
1.43476
1.43301
1.4333
1.4327
1.43442
1.43115
1.3718
1.36871
1.47786
1.44348
1.49502
1.98262
1.77542
1.694
2.42031
12.1894
5.25615
2.26647
2.20203
2.35382
2.30565
1.85711
1.52136
1.45098
1.43761
1.43445
1.43275
1.43255
1.43275
1.4334
1.43152
1.37609
1.34769
1.47822
1.44589
1.51143
2.13971
1.82541
1.76429
3.03253
12.5726
4.75688
2.19973
2.10694
2.20791
2.85672
2.05692
1.55345
1.45496
1.43843
1.43424
1.43265
1.43336
1.43298
1.43196
1.43076
1.38051
1.34536
1.47205
1.46079
1.57022
2.3526
1.84433
1.72249
2.91182
10.1786
3.63327
2.16409
2.13846
2.47271
3.01255
2.00053
1.5383
1.45325
1.43712
1.43466
1.43293
1.43129
1.43279
1.4329
1.43058
1.37974
1.34497
1.47432
1.47024
1.66181
2.63582
1.86574
1.59271
1.71512
2.75227
2.15066
1.89743
2.07501
2.52745
2.26951
1.71712
1.49365
1.44713
1.43704
1.43389
1.43212
1.43223
1.43179
1.43352
1.42757
1.37672
1.3476
1.47637
1.48945
1.73687
3.0205
1.9237
1.53458
1.50684
1.58073
1.62139
1.54497
1.54023
1.58681
1.60202
1.51618
1.46205
1.44334
1.43623
1.43351
1.43272
1.43238
1.43204
1.43378
1.43334
1.37207
1.36429
1.48194
1.53005
1.91226
3.38911
2.01438
1.52867
1.48986
1.51411
1.53483
1.51643
1.49783
1.49463
1.49119
1.47088
1.45057
1.43989
1.43573
1.43344
1.43251
1.43291
1.43414
1.43455
1.43523
1.39769
1.42045
1.49065
1.57891
2.1709
3.86637
2.13107
1.5605
1.51347
1.52435
1.52843
1.51404
1.49876
1.48871
1.47325
1.45726
1.44467
1.43864
1.43567
1.43402
1.433
1.43376
1.43328
1.43486
1.44167
1.53164
1.71967
1.50213
1.67201
2.61054
4.51604
2.27638
1.63386
1.57026
1.55705
1.54199
1.5223
1.50856
1.48758
1.46262
1.44859
1.44419
1.44009
1.43755
1.43528
1.43474
1.43414
1.43547
1.43812
1.5154
2.62543
3.82024
1.51651
1.76927
3.14762
5.22984
2.47435
1.79475
1.67497
1.61637
1.57689
1.55188
1.55346
1.56647
1.59504
1.63106
1.67078
1.71744
1.76935
1.85091
1.91587
1.97135
2.00121
2.02557
3.79587
9.48114
12.2531
1.53349
1.79182
3.05785
6.81828
3.74561
2.69204
2.54215
2.96384
4.59588
6.39915
7.7633
9.06056
10.4773
11.9657
13.0116
13.9758
14.7865
15.3935
15.9359
16.5308
16.9672
16.6031
16.2912
16.551
17.2065
1.53676
1.69907
2.7026
6.17143
5.71721
4.00163
3.80014
4.11159
4.56378
5.6908
6.55643
7.17245
7.56327
7.88256
8.32859
8.76325
9.20387
9.43099
10.4912
10.3191
11.1592
10.662
10.4409
10.222
10.1387
1.53247
1.61928
2.06196
4.10939
6.05381
5.63684
4.66364
4.20757
4.14847
4.27619
4.44105
5.10272
5.22577
5.34629
5.33928
5.50358
5.49
5.66119
5.21962
5.53206
5.45839
6.109
5.4919
5.31964
5.36162
1.49442
1.59231
1.82143
2.56011
4.93848
6.58968
6.45284
5.61396
4.78614
4.28629
3.973
4.00767
3.64299
3.58173
3.26997
3.44667
3.35512
3.08277
3.14093
3.01269
3.38594
3.72368
3.79675
3.83319
3.85946
1.48363
1.54351
1.72688
2.08098
3.59447
5.62387
7.43396
7.36608
6.34576
5.14221
4.07719
3.38111
2.73359
2.634
2.50832
2.42145
2.35038
2.283
2.24226
2.264
2.41383
2.69367
2.91335
3.18918
3.25574
1.4707
1.49118
1.80021
3.20486
6.9203
9.34015
10.9242
11.8675
12.7975
13.6541
14.0406
14.2896
14.3767
14.8345
14.8664
14.8025
14.6611
14.4741
14.2789
14.0741
13.8526
13.5133
12.8715
11.8409
11.2204
1.46849
1.46709
1.61641
3.51283
4.13392
6.11931
10.6225
14.6039
17.6635
20.3848
22.2673
23.7757
24.825
25.5323
25.6947
25.496
25.2774
24.9892
24.7056
24.3837
24.043
23.217
20.2889
17.1778
17.4119
1.46739
1.45758
1.59149
2.74241
2.07758
1.79111
1.9818
2.34281
2.63612
3.01644
3.26062
3.57985
4.09508
4.22012
4.36834
4.47779
4.54705
4.55476
4.57401
4.59581
4.52985
4.45126
4.38864
5.07782
8.23447
1.47312
1.44984
1.55522
2.30332
1.81231
1.54109
1.48853
1.48284
1.49274
1.49272
1.4783
1.46875
1.46639
1.46068
1.45368
1.44969
1.44557
1.44371
1.44287
1.44321
1.4443
1.4516
1.53059
1.90167
2.45623
1.47407
1.44726
1.52847
2.1258
1.73497
1.50858
1.47771
1.49468
1.56192
1.53533
1.49508
1.47305
1.46933
1.46279
1.45377
1.44598
1.44039
1.43732
1.43609
1.43564
1.43621
1.43855
1.45239
1.51874
1.59563
1.47608
1.44424
1.50649
2.00265
1.73665
1.5491
1.57533
1.95227
2.08201
1.69318
1.55652
1.51521
1.51363
1.4885
1.46332
1.44788
1.44008
1.43718
1.43589
1.43589
1.4359
1.4371
1.44602
1.47356
1.48709
1.47721
1.44423
1.50156
2.00349
1.76295
1.62536
1.81574
3.61793
2.89913
1.79026
1.59757
1.63869
1.73987
1.60186
1.48854
1.4514
1.44043
1.4372
1.43533
1.43538
1.43535
1.43678
1.4442
1.47093
1.46762
1.47661
1.44812
1.52038
2.13542
1.80226
1.66023
1.99436
4.71457
2.88415
1.76437
1.6006
1.71573
1.95908
1.7163
1.51166
1.45472
1.44116
1.43708
1.43585
1.43604
1.43629
1.43532
1.44334
1.47266
1.46539
1.47195
1.46525
1.58524
2.36124
1.82951
1.63145
1.89321
3.7772
2.41585
1.68421
1.59802
1.78594
1.99011
1.69454
1.50576
1.4527
1.43961
1.43737
1.43633
1.43469
1.43599
1.43578
1.44443
1.46975
1.4635
1.47439
1.4747
1.67496
2.65405
1.85925
1.55166
1.57287
1.86474
1.74534
1.58143
1.56904
1.68318
1.7277
1.57136
1.4787
1.44873
1.4397
1.43613
1.43572
1.43524
1.43452
1.43639
1.44217
1.47005
1.46727
1.47686
1.49356
1.74108
3.01779
1.93149
1.52414
1.49237
1.52181
1.54935
1.51664
1.50221
1.5106
1.52248
1.49078
1.45923
1.4444
1.43816
1.43616
1.43568
1.43528
1.43514
1.43718
1.44755
1.47287
1.48177
1.48166
1.53847
1.9611
3.42529
2.0272
1.53043
1.49106
1.5048
1.51946
1.51005
1.4944
1.48692
1.48134
1.46694
1.45214
1.44203
1.43751
1.43613
1.43585
1.43583
1.43676
1.43668
1.44933
1.49147
1.54593
1.4908
1.58478
2.18712
3.90647
2.15802
1.5683
1.51974
1.52464
1.52497
1.51335
1.49643
1.48389
1.47052
1.45831
1.44764
1.44236
1.43847
1.43633
1.43607
1.43573
1.43614
1.43797
1.45692
1.64
1.89233