/*--------------------------------*- C++ -*----------------------------------*\
  =========                 |
  \\      /  F ield         | OpenFOAM: The Open Source CFD Toolbox
   \\    /   O peration     | Website:  https://openfoam.org
    \\  /    A nd           | Version:  6
     \\/     M anipulation  |
\*---------------------------------------------------------------------------*/
FoamFile
{
    version     2.0;
    format      ascii;
    class       volScalarField;
    location    "10";
    object      nut;
}
// * * * * * * * * * * * * * * * * * * * * * * * * * * * * * * * * * * * * * //

dimensions      [0 2 -1 0 0 0 0];

internalField   nonuniform List<scalar> 
230684
(
0.917069
0.928789
0.817037
0.767934
0.388118
0.515576
0.63452
1.51805
1.51226
1.60094
1.62991
1.66587
1.721
1.78993
1.87522
1.9358
1.98703
2.0301
2.06822
2.0974
2.16422
2.19119
2.2344
2.22069
2.19044
0.943119
0.921875
0.43168
0.372072
0.208856
0.232456
0.112674
0.688201
0.751893
0.769037
0.76233
0.771355
0.832593
0.884598
0.952584
1.02764
1.07311
1.09525
1.12274
1.15324
1.1451
1.16116
1.25147
2.63056
2.38297
0.934354
0.920224
0.458392
0.176586
0.256625
0.216048
0.150029
0.415736
0.421766
0.405485
0.375419
0.354393
0.332284
0.349613
0.400233
0.416705
0.403321
0.396998
0.381436
0.373486
0.371565
0.369763
0.836704
1.60261
1.70103
0.917095
0.456427
0.200989
0.184906
0.199132
0.264897
0.153357
0.349644
0.321571
0.342044
0.36661
0.176242
0.108796
0.11123
0.0759311
0.283775
0.319412
0.343685
0.34788
0.352612
0.355684
0.357086
0.872
1.58889
1.44617
0.93361
0.918117
0.437933
0.172717
0.188692
0.27589
0.297657
0.328579
0.351414
0.384946
0.378
0.126966
0.113819
0.106546
0.125351
0.30044
0.327689
0.362599
0.359143
0.356399
0.355696
0.357105
0.86706
1.62338
1.45517
0.942526
0.908169
0.447042
0.169808
0.0849976
0.185844
0.142535
0.142207
0.316474
0.345402
0.330946
0.310219
0.284328
0.353858
0.111811
0.314143
0.343755
0.351557
0.357404
0.363122
0.370845
0.363739
0.863288
1.65232
1.48157
0.941294
0.910019
0.448348
0.1686
0.213411
0.180549
0.13628
0.11933
0.137855
0.139045
0.134424
0.141403
0.122456
0.357406
0.304869
0.327359
0.359317
0.369012
0.37024
0.370819
0.371474
0.371425
0.891983
1.68047
1.50974
0.934217
0.920599
0.444928
0.179022
0.206851
0.248333
0.250927
0.282924
0.185968
0.150347
0.143946
0.139011
0.0958075
0.438437
0.348405
0.298384
0.309368
0.33742
0.350477
0.356218
0.378665
0.376699
0.901917
1.70581
1.52181
0.936163
0.921448
0.442039
0.179661
0.207392
0.263535
0.317776
0.368387
0.163734
0.147765
0.139806
0.137465
0.352446
0.378241
0.327287
0.302751
0.315179
0.335713
0.358942
0.372866
0.381389
0.383034
0.893376
1.70558
1.52207
0.94292
0.91018
0.432204
0.182427
0.212394
0.267781
0.303668
0.129065
0.442962
0.304127
0.259111
0.13842
0.308963
0.421718
0.432044
0.410402
0.395024
0.375096
0.371797
0.375531
0.381178
0.381021
0.918952
1.70926
1.5224
0.928183
0.916819
0.42522
0.185034
0.194442
0.0825998
0.100504
0.178108
0.137825
0.13559
0.135615
0.124668
0.103795
0.194904
0.227282
0.239109
0.271578
0.3268
0.355408
0.371925
0.37425
0.375791
0.865763
1.64137
1.44173
0.945939
0.894982
0.410778
0.188736
0.226338
0.285653
0.118454
0.234167
0.158453
0.130952
0.120324
0.141571
0.132753
0.124787
0.123483
0.122912
0.10894
0.248703
0.125098
0.119735
0.269998
0.294052
0.785728
1.68701
1.50761
0.939485
0.912889
0.414458
0.193235
0.240938
0.283479
0.280302
0.339019
0.139606
0.137596
0.122416
0.107918
0.501434
0.123774
0.0870324
0.124078
0.190838
0.416565
0.226587
0.121087
0.102933
0.292204
0.75397
0.68052
1.31792
0.961498
0.873746
0.424168
0.203068
0.254595
0.300373
0.331715
0.331204
0.333323
0.340076
0.308429
0.303395
0.292305
0.282652
0.223804
0.0744764
0.282746
0.338327
0.145738
0.270671
0.184908
0.122413
0.102324
0.232372
1.06938
0.96349
0.863372
0.418634
0.214098
0.270781
0.304498
0.343983
0.359924
0.364185
0.361633
0.363944
0.378303
0.106676
0.0943843
0.295147
0.418977
0.361136
0.335762
0.350284
0.320859
0.360011
0.136188
0.146693
0.290579
1.44424
0.964093
0.865639
0.424452
0.540364
0.711216
0.685779
0.804858
0.852023
0.823126
0.825112
0.363173
0.126515
0.109584
0.0870943
0.285745
0.239347
0.164608
0.853089
0.262029
0.152451
0.117248
0.115983
0.204212
1.55343
1.59439
0.959921
0.872982
0.80252
0.970175
1.28045
1.35709
0.665727
0.622152
1.37456
0.641102
0.268401
0.221119
0.144855
0.103733
0.101344
0.179022
0.152296
0.356684
0.128302
0.279091
0.118416
0.325523
0.777683
1.81714
1.71769
0.945589
0.881116
0.8235
0.819085
0.952051
0.508141
0.265524
0.251987
0.710015
1.56126
0.67071
0.265289
0.23635
0.201031
0.226704
0.197758
0.225097
0.272237
0.360614
0.256546
0.110654
1.58036
1.66051
1.61594
1.603
0.937568
0.904726
0.838963
0.810169
0.828685
0.914175
0.479849
0.342967
0.707388
1.62252
0.772671
0.485524
0.187076
0.656948
0.664198
0.629465
0.576215
0.304734
0.284267
0.287401
0.819738
1.85336
1.82523
1.74089
1.58114
0.930702
0.906922
0.854468
0.825268
0.826007
0.874335
1.00296
1.12791
1.21509
1.27384
1.32829
0.657081
0.66875
1.3206
1.33096
1.35776
0.67053
0.340807
0.320283
0.680887
1.57205
1.64298
1.66306
1.66592
1.61169
5.34569
4.46219
4.10496
4.05315
6.72129
8.52289
7.70438
6.98227
7.60944
8.33311
8.81324
8.95611
9.96944
10.9461
11.4677
11.5289
11.5729
11.4176
11.4707
12.0533
12.5293
11.6493
12.1898
12.0252
11.28
5.3541
4.43263
3.46163
5.61802
6.35884
1.98229
0.503352
2.25807
4.71156
8.11
9.73097
12.0426
13.559
14.9035
15.7727
16.3476
15.9304
15.9933
15.2343
15.3145
15.0997
14.6781
14.4113
13.3466
12.4232
5.26411
4.28183
3.35054
4.31637
5.76562
1.39144
1.32989
2.69639
4.04009
4.28243
4.28571
5.60411
5.8529
5.87635
5.91294
5.55078
5.61373
5.64953
5.56359
5.43387
5.15035
5.58299
6.74302
5.17499
3.84572
2.9371
2.46111
3.46718
1.67025
3.35198
3.98785
3.90854
0.974971
1.48922
2.14357
2.97411
3.81459
3.92083
3.76325
3.57556
3.55652
3.57742
3.57818
3.6548
5.15857
4.34095
2.92004
3.64354
4.63987
3.28873
3.77678
4.23148
4.81115
4.467
3.63076
1.09302
1.66807
2.3575
2.91195
3.82381
3.66288
3.69819
3.71446
3.78287
3.62282
3.29462
5.1525
4.35205
2.84377
3.73322
3.49382
2.40926
3.10495
3.35522
2.84259
1.44408
1.57014
1.14933
2.22377
3.17493
3.76832
3.8012
3.72372
3.60196
3.63719
3.54678
3.23663
5.14509
4.37224
2.88907
3.62655
1.29123
0.156922
0.503921
2.52905
2.95031
3.64228
3.80591
3.75866
3.74726
3.71521
3.72117
3.72857
3.81619
3.55287
3.19364
5.17146
4.29077
3.31923
3.9164
3.59369
2.96986
1.49913
0.274684
0.444113
1.82402
2.48953
3.44929
3.87985
3.72421
3.80567
3.78062
3.72925
3.85734
3.85365
3.43522
3.17816
5.29437
4.34079
3.38829
4.45112
5.23432
4.82676
5.13918
1.35461
2.07501
2.54376
3.27412
3.68465
3.73538
3.84622
3.82289
3.71698
3.69198
3.67523
3.32553
3.19615
5.27754
4.43066
3.56434
4.95886
5.2474
4.53646
3.77529
2.70692
1.8522
2.05719
0.69475
0.190358
2.56433
4.20484
3.55711
3.46049
3.46895
3.74208
3.64725
3.80016
3.71428
3.9259
3.89595
3.45018
3.22142
5.28022
4.38969
3.8683
5.36741
4.32144
0.447801
2.25785
0.191206
0.889112
2.09073
1.79601
2.37041
3.0338
3.44902
3.51586
3.9526
3.93217
3.73417
3.7068
3.23057
3.13835
5.1937
4.47675
4.12207
5.70399
5.52947
2.3624
1.01416
0.731785
0.228593
0.314528
0.81767
0.980679
1.21719
1.70003
2.11066
2.29152
2.31953
2.52218
5.2145
4.661
4.15854
6.22065
5.52445
5.00329
2.70771
2.1933
0.452452
1.87337
0.492533
0.322606
0.244065
0.48721
1.53176
0.0868592
0.377026
1.33342
2.03703
2.2602
1.89068
5.24552
4.68655
4.2136
6.8391
5.72841
4.98143
4.65978
4.19348
4.18288
3.32746
2.80374
3.17027
1.30003
2.74424
0.700132
0.336444
1.45653
2.63953
1.22198
0.462602
0.948942
0.850554
2.07008
5.27239
4.72336
4.29597
7.15662
5.89523
5.13809
4.62334
4.42962
4.43712
4.05473
3.96103
2.69189
0.692711
0.752471
1.31498
1.90143
3.10544
2.76025
2.27698
1.29276
0.331851
1.51316
1.66016
5.09249
5.34512
4.68251
4.3832
7.58594
6.42489
5.60053
4.79369
4.52256
4.86565
5.3325
4.54048
0.403605
0.689442
1.38823
1.1453
1.76978
0.505565
7.30293
9.70853
5.30716
4.54747
4.82468
7.36967
7.47938
6.14562
4.85299
4.84757
5.15412
4.76696
4.78725
5.29255
0.124118
0.0931848
3.49194
0.742569
3.01516
3.62572
6.69326
9.54926
12.4172
12.595
5.28483
4.5357
4.23814
6.13827
6.82556
5.65943
4.37024
4.34882
3.65234
4.0994
3.98034
3.86645
3.99583
0.577714
1.51729
1.27137
8.40399
0.829842
0.749185
9.42524
10.8587
11.4991
12.0089
5.26569
4.57885
4.20118
5.18752
6.11733
6.55029
4.09788
0.705895
2.85094
5.96439
5.62347
2.65457
2.39544
6.82826
6.95706
8.19778
7.71251
1.59183
4.51469
9.30242
10.1792
10.1197
10.4973
5.24818
4.52256
4.43064
4.52671
5.8845
6.73447
6.70919
6.68831
6.80989
6.91357
6.05675
5.57422
5.0257
5.59488
5.72649
5.1112
4.76608
5.64048
2.2222
5.87391
8.97637
9.14278
8.60761
8.38399
8.6608
6.58947
6.41061
6.45815
7.95766
11.8031
13.9984
12.173
12.3348
13.2649
14.1974
14.5598
14.7392
15.6797
15.9136
16.7877
16.2132
17.0859
16.7228
16.463
16.3485
16.4445
16.1587
15.9008
16.2283
15.1694
6.58872
6.38381
6.23005
8.91222
8.85342
8.44658
8.62688
10.5881
12.8486
15.1266
16.7142
18.104
20.1323
21.6757
22.1965
22.6103
22.965
22.5216
21.2932
21.4841
20.9028
20.7564
19.9736
18.4312
17.6879
6.63966
6.265
6.14094
8.02377
6.22315
2.37417
2.20466
2.25695
3.74512
5.66556
6.32579
6.37012
6.98688
7.99414
7.70566
7.94533
7.54638
7.17176
7.17175
6.97794
7.05059
7.0627
6.84494
7.5228
10.4307
6.63447
6.31037
6.12103
7.03298
5.87323
2.43454
3.28207
3.89428
5.08582
5.95065
5.65871
2.27656
2.6752
3.61961
4.04229
5.21257
5.71243
5.64969
5.25133
4.88417
4.90809
4.79167
4.95085
4.53482
5.12689
6.62415
6.25674
6.11409
7.15907
5.08145
2.71318
3.85902
2.74356
4.1767
6.00834
6.01089
2.78494
2.4673
3.23702
3.05475
3.71881
4.92778
5.33231
5.05696
4.787
4.70369
4.86249
4.77682
3.99512
4.19676
6.62422
6.25607
6.09735
7.60824
5.66737
2.07564
2.22194
4.17817
4.96567
3.72031
4.08021
2.85625
3.95945
5.37835
5.51106
5.21843
4.6665
4.61215
4.671
4.72416
3.9739
3.97488
6.65903
6.24819
6.08932
7.71568
3.18305
0.36208
2.36992
3.73987
5.17907
5.71535
5.57437
5.29201
5.05233
4.74846
4.61796
4.62681
4.61119
3.88068
3.7672
6.69118
6.24309
6.13355
7.36731
3.99575
3.2614
2.47537
0.199601
2.06836
3.04337
5.23757
5.57669
5.27149
4.98635
4.90252
4.64487
4.7316
4.50672
4.55955
3.68386
3.7758
6.67947
6.29657
6.22154
7.68875
6.8654
6.97458
7.67014
0.165284
3.0565
4.09531
5.54148
5.58414
5.34513
5.07264
4.83954
4.7624
4.5827
4.56285
4.54848
3.68274
3.77095
6.59549
6.40747
6.44443
8.15231
6.99747
6.43162
6.02874
5.36978
2.88797
1.88419
1.06395
0.916578
5.49662
4.77842
5.34568
5.50412
5.33193
5.26969
4.91262
4.85632
4.63221
4.53689
4.57097
3.83607
3.81082
6.60384
6.45877
6.55458
8.57374
7.00252
5.05631
6.99822
0.217086
0.120179
0.140965
0.177799
0.513952
1.41136
1.68624
1.70834
1.85849
2.26735
3.45548
4.88817
5.29116
4.81699
4.68601
4.78595
4.15436
3.79691
6.61383
6.58685
6.97741
9.13883
7.06137
5.33836
3.61612
1.31884
0.806943
0.153616
0.145378
0.158991
0.16573
0.160156
0.147471
0.142506
0.294046
0.83443
1.73828
3.33937
3.6612
3.79869
4.26411
3.58615
3.51001
6.63181
6.61671
6.90276
9.53908
7.15736
6.50659
5.7961
4.88661
3.71143
3.98694
0.205109
0.332077
1.44632
1.53017
1.56672
0.744504
1.16879
1.51586
2.24678
2.79718
2.89743
3.34953
3.97382
3.17966
2.92897
6.64221
6.63449
6.83837
9.73186
7.44192
6.61807
6.23562
5.834
5.7317
4.67657
3.12073
5.05282
3.48308
4.05159
4.18049
4.46782
4.3119
4.61589
2.89328
2.74346
1.67901
1.87212
2.01996
3.38346
4.363
6.6491
6.59582
6.87899
10.1768
7.78204
6.97848
6.53588
6.07537
5.59004
5.48097
5.28942
4.77436
2.19216
3.22924
3.44522
4.16804
4.68289
4.47268
4.49982
4.50569
3.86406
3.31034
4.2232
8.56277
10.5381
6.68241
6.66
7.10521
11.1556
9.07013
7.68754
7.5239
8.1268
9.27875
9.62532
9.04738
4.47931
3.21455
6.78386
9.32377
4.86962
6.66129
8.90528
9.49017
10.5301
11.0227
10.5618
11.3599
15.2826
16.5172
6.69775
6.59798
7.43802
10.7452
10.8447
8.87375
8.01009
8.46674
8.75498
8.75415
8.88221
8.90863
4.52334
9.54151
13.034
11.3014
14.7588
14.923
13.1931
13.3046
14.9499
17.7615
18.2124
18.1149
18.0836
6.67227
6.81429
6.67402
8.63047
10.3579
8.92901
8.14542
6.20514
6.78218
9.7504
9.04868
9.99584
9.80247
11.8553
18.5122
20.3894
20.3906
21.0563
11.2582
15.5253
16.035
19.1946
19.1215
19.1091
18.1079
6.5933
6.50293
6.61563
7.69061
9.33843
10.7306
9.7749
1.50612
8.92582
11.4522
11.4188
11.0907
10.4069
11.5484
12.8874
14.3902
16.9518
18.2535
11.3004
17.4285
18.5616
18.4785
18.0986
17.0639
16.4303
6.60204
6.37418
6.82309
6.76982
9.22889
11.1719
10.8662
11.2379
10.8959
10.7355
9.75258
8.66129
8.22207
8.8542
8.52787
8.29813
9.07705
10.7371
13.037
14.1226
15.6981
16.1029
16.1126
15.4828
14.932
6.74232
6.84808
7.45672
9.81026
14.0966
15.9576
16.7398
16.0698
16.9902
17.9462
17.8961
18.0454
18.1089
18.9176
18.7772
18.6244
18.5941
18.3345
18.0047
17.7243
17.5531
17.2978
16.9326
16.4395
15.9031
6.73393
6.79606
7.04112
10.0759
10.6942
11.5911
14.6483
17.0186
18.6616
19.8259
19.7261
20.6638
22.367
23.8278
24.5928
23.9331
24.1446
24.0507
22.6679
22.4492
22.3693
22.0323
20.8273
20.328
19.5534
6.66998
6.7787
6.96798
9.00904
8.18328
5.71097
6.61685
6.80535
6.62334
6.78494
6.50322
6.62928
7.50915
8.06321
7.70531
7.99472
7.77173
7.46875
7.37158
7.25162
7.21639
7.21768
7.25931
7.67644
12.4489
6.71826
6.73027
6.87889
8.23146
7.40658
6.17285
6.71524
6.86158
6.96101
7.02668
7.14329
5.90316
6.25133
6.43692
6.4502
6.69912
6.79615
6.79179
6.75916
6.73064
6.72667
6.75065
6.64257
5.94828
6.22997
6.71152
6.73564
6.93942
8.12989
7.09977
5.62163
6.24305
6.70311
6.21478
6.93276
7.25051
6.14796
6.08328
6.42684
6.20482
6.3987
6.7185
6.78361
6.76673
6.74393
6.7246
6.73387
6.70628
5.90106
5.60762
6.71632
6.73075
6.89072
8.28585
5.72123
3.41486
4.94214
7.19929
2.82802
3.08655
4.62561
5.54976
5.75397
6.30212
6.33353
6.52825
6.73864
6.79033
6.76989
6.73744
6.72521
6.7282
6.69283
5.84734
5.43848
6.72127
6.72911
6.90144
8.30823
6.55349
3.44987
5.0395
1.49704
2.22773
3.64476
5.74193
6.78335
6.79675
6.77808
6.75874
6.73495
6.72517
6.72842
6.64794
5.80411
5.32946
6.72295
6.72428
6.85676
8.18315
7.01845
6.86242
6.75023
0.182619
2.30157
3.16423
6.10958
6.79789
6.7828
6.76049
6.74971
6.72736
6.71332
6.72361
6.64862
5.77244
5.31276
6.66596
6.80269
7.07732
8.43427
7.28225
7.88542
10.1363
0.23506
2.90447
3.95285
6.55056
6.80546
6.78134
6.76451
6.74532
6.72486
6.72244
6.72067
6.66454
5.77927
5.32403
6.74808
6.79894
7.23811
8.74197
7.16956
7.19586
8.14332
5.12739
3.25466
1.8894
1.56357
0.99937
5.0935
5.18908
6.50483
6.73629
6.7563
6.76427
6.75992
6.74446
6.72643
6.72353
6.68693
5.79606
5.34332
6.75722
6.88101
7.09952
9.34374
7.18365
7.10009
4.81349
4.00653
4.88008
4.28525
3.69802
3.87524
4.59744
4.0391
3.90394
4.19344
4.62998
5.51355
6.52413
6.75242
6.73619
6.71853
6.71297
5.94753
5.4426
6.78152
7.02549
8.05683
9.98097
7.12803
6.86369
6.71312
4.542
4.50619
3.715
2.90419
3.12496
3.66774
3.52253
3.38658
3.27341
3.22799
3.03202
4.9746
6.27893
6.2786
6.32421
6.53686
5.77183
5.28597
6.80584
7.05882
7.74296
10.2354
7.23367
6.87953
6.96103
6.81189
6.33232
5.513
3.35948
4.51439
4.6044
4.80238
4.90298
4.6736
4.12583
4.2524
5.41068
6.08356
5.9417
6.18167
6.31811
5.71332
5.22857
6.83163
7.12035
7.77042
10.4907
7.5058
7.06192
7.0186
7.01882
7.0045
6.79543
5.98937
6.43993
5.69685
6.28953
6.5305
6.58648
6.53012
6.58165
6.73461
5.89601
5.28301
5.65692
5.51733
6.22632
7.04426
6.82509
7.04229
7.86848
11.2072
8.00227
7.5031
7.28369
7.11885
7.04413
6.9999
7.30474
7.54036
5.46302
6.30274
6.35041
6.61964
6.74192
6.77301
6.8865
6.89476
6.60426
6.54973
7.77107
11.9756
14.0912
6.8448
7.13551
8.1326
12.5461
9.70377
8.85527
8.96899
10.2206
11.5213
11.5749
11.6565
11.2086
10.2835
12.2371
13.867
14.2994
14.5538
14.7655
15.7248
15.8097
15.7551
15.772
18.3365
19.1668
20.158
6.86888
7.13518
8.40029
11.8708
12.0437
10.0519
10.0485
10.6555
11.1616
11.8034
11.7878
11.712
12.1641
15.6652
19.4798
20.7246
23.1865
21.6786
20.2005
21.0276
22.4835
20.0629
20.6607
20.4257
20.4711
6.85001
7.04847
7.63751
9.78461
11.8814
11.1743
10.6216
11.5042
13.5835
13.1748
13.3331
14.1741
14.3789
15.557
19.6016
22.8528
24.6555
24.2884
22.9032
23.023
23.0609
23.9955
22.6715
21.3718
20.1331
6.65247
7.0401
7.25651
8.49424
11.2973
13.2704
13.5799
12.5165
14.0507
14.1183
13.7956
14.4416
14.0642
13.984
16.09
15.8695
17.9296
20.8664
20.7954
21.8462
22.0026
21.5864
20.8754
19.9096
18.6333
6.76278
6.85081
7.32469
7.47579
10.9514
13.8254
14.7831
14.6864
14.2424
12.578
11.6037
11.5587
10.4355
9.87651
9.30701
9.82977
10.2307
10.618
11.9723
15.365
17.691
18.9908
18.5989
18.3256
17.2142
6.76387
6.95118
7.79906
10.5014
14.2079
16.7894
18.646
18.1547
19.2262
20.1701
19.5768
20.1061
19.8141
19.6978
19.5371
19.3757
19.1513
18.8338
18.4926
18.2042
17.9949
17.7016
17.2754
16.6546
16.1238
6.75094
6.86609
7.27697
10.1847
10.9097
12.6344
16.6068
19.3674
20.6457
21.7792
21.5981
22.3438
23.5231
24.0276
24.535
24.4321
24.4483
23.9119
23.1486
22.9099
22.7162
22.5255
21.0759
19.4097
20.1601
6.65671
6.85969
7.15437
9.07968
7.67709
7.346
7.38949
7.22326
6.9191
6.64316
6.55236
6.49894
7.39427
7.89727
7.5219
7.57425
7.84753
7.56429
7.23213
7.18413
7.14023
7.27904
7.33068
7.728
13.2439
6.69123
6.81022
7.04067
8.58702
7.13321
7.07662
7.05122
7.01917
7.0447
7.016
6.97535
6.99473
6.96211
6.90956
6.85974
6.85503
6.84683
6.83773
6.845
6.84276
6.84653
6.85407
6.89487
6.3889
6.74265
6.68855
6.81535
7.08384
8.43917
7.15886
6.96315
7.06413
7.81155
6.70382
7.07617
7.05913
7.08738
7.0074
6.92378
6.85578
6.84582
6.84562
6.852
6.85384
6.85316
6.85671
6.86063
6.89317
6.74883
6.65117
6.68859
6.81364
7.06953
8.16639
7.4807
6.67025
8.14544
8.11017
2.55038
3.03225
4.40431
5.51343
5.72327
6.38655
6.8159
6.84562
6.84572
6.85039
6.8532
6.85597
6.8553
6.85616
6.86856
6.65434
6.53512
6.69338
6.81055
7.06603
8.10992
7.447
7.11709
9.55184
2.60581
2.55147
3.51467
5.67122
6.81005
6.84081
6.85328
6.85295
6.85602
6.85709
6.85257
6.86232
6.71624
6.44926
6.69394
6.80792
7.05769
8.3946
7.31285
8.13164
9.97029
0.192246
2.26394
2.6936
5.88701
6.82161
6.84364
6.85389
6.85844
6.85228
6.85615
6.85297
6.8614
6.7484
6.4393
6.65307
6.88556
7.29289
8.58013
7.2701
7.66543
11.1972
0.347147
2.7179
3.17864
6.3694
6.83447
6.84163
6.85693
6.85638
6.85694
6.85062
6.85914
6.86081
6.75525
6.44078
6.76051
6.84483
7.44298
8.93767
7.18153
7.1402
7.08004
4.29388
2.89023
1.67604
0.76008
0.907061
4.53884
4.71605
6.64267
6.83479
6.84071
6.85514
6.85288
6.85691
6.85505
6.85588
6.86316
6.72304
6.44161
6.76822
6.94937
7.65972
9.53287
7.10975
7.03282
7.38647
7.0093
6.94065
6.38513
6.21351
6.37671
6.53399
6.47196
6.4258
6.50961
6.56422
6.70824
6.82518
6.85779
6.8559
6.85849
6.86021
6.65691
6.52246
6.79888
7.09852
8.22885
10.1731
7.11285
6.89457
7.13577
6.92141
6.87531
6.57795
6.25746
6.45808
6.50139
6.22352
5.86706
5.97657
5.88441
6.09252
6.67531
6.85054
6.83915
6.83941
6.87431
6.70141
6.58028
6.82998
7.17293
8.01168
10.4094
7.23578
6.88572
6.93705
7.04828
7.00409
6.98745
6.50379
6.69876
6.69331
6.71313
6.67872
6.59454
6.48705
6.52919
6.77842
6.8585
6.81781
6.83539
6.90874
6.82603
6.76748
6.86315
7.26275
8.18056
10.9277
7.62678
7.07445
7.0411
7.02594
7.01468
6.98018
7.07579
6.97329
6.82671
6.83983
6.86292
6.85874
6.85738
6.86136
6.90959
6.84465
6.81407
6.83469
6.96271
7.43988
8.26552
6.85404
7.15813
8.21569
11.5791
8.02991
7.52647
7.31292
7.15473
7.08048
7.05643
7.18443
7.48562
7.08335
6.95345
6.8687
6.90299
6.89602
6.86196
6.93073
6.81798
6.7908
6.84051
8.60501
13.4621
16.0366
6.8716
7.26583
8.50855
12.9969
9.90534
8.88223
9.04103
10.2475
12.2008
12.6056
13.2176
13.9099
14.8387
15.7267
16.4869
16.8491
17.292
17.9607
18.5105
19.5374
18.6416
18.8123
20.2217
20.7641
22.0317
6.8936
7.25197
8.74726
12.1635
12.2531
10.6639
10.6428
11.937
12.5586
13.738
13.7897
13.9357
14.1516
14.1229
19.0862
21.2056
22.8819
23.0747
21.7976
21.9771
22.2077
21.0597
20.6949
20.4742
20.6004
6.87028
7.05909
7.89984
10.1059
12.5288
12.2959
12.0294
11.7932
12.1931
14.3611
14.1636
14.2641
14.3848
14.8591
16.3541
19.0762
21.1582
21.9477
21.642
21.5358
19.9652
22.5066
21.5791
19.3532
18.7755
6.62641
7.14532
7.58755
9.00557
11.9162
14.8428
14.0665
13.9881
14.0338
13.8991
13.7451
13.5447
13.5613
13.3915
14.2889
13.5751
14.8203
14.8733
15.378
18.2634
19.0381
20.7881
18.968
17.3872
16.9186
6.78218
6.92159
7.44422
7.77244
11.9703
14.9077
16.375
16.6275
15.8491
13.0094
12.8163
11.8439
9.81716
9.49105
8.8155
9.13458
8.56713
9.24241
9.57911
11.7848
15.6163
17.0845
17.2445
16.8579
15.4567
6.76748
6.95626
7.86957
10.5212
14.2965
17.5251
19.95
19.6472
20.8802
20.7957
20.7882
20.5986
20.4546
20.3086
20.0867
19.8399
19.4882
19.1439
18.8321
18.5821
18.3718
18.0927
17.6251
16.97
16.3756
6.75263
6.86976
7.28351
10.1147
10.9728
13.6528
17.9288
20.3323
21.217
22.6722
22.9422
23.2318
24.1707
24.4387
24.8725
24.5588
24.4034
23.8323
23.4872
23.369
23.2585
23.0995
21.6902
19.5103
20.4834
6.65108
6.87437
7.19666
9.13346
7.6484
7.29719
7.48448
7.18219
6.78509
6.76824
6.92281
6.98365
7.18945
7.81316
7.26872
7.55425
7.8324
7.38987
7.43452
7.48845
7.53042
7.67566
7.48457
7.89732
13.6189
6.68131
6.8186
7.06287
8.62036
7.11867
6.89587
6.92093
6.9328
6.98673
6.96078
6.90027
6.89176
6.90375
6.88074
6.86247
6.854
6.84447
6.84294
6.84605
6.84524
6.84759
6.85715
6.90835
6.51318
6.93036
6.67912
6.81873
7.09207
8.63028
7.12743
6.90406
6.98822
7.44508
6.92769
7.03833
6.9352
6.90675
6.92317
6.89643
6.8613
6.86281
6.86079
6.85867
6.85443
6.85255
6.84784
6.85696
6.8855
6.92475
6.97753
6.68735
6.80697
7.07395
8.08942
7.12101
7.03343
7.9069
7.12406
2.13604
3.2276
4.14518
4.96643
5.57617
6.40802
6.82089
6.84534
6.84775
6.85056
6.85717
6.85617
6.85171
6.85261
6.85529
6.72261
6.86662
6.68326
6.8116
7.07056
8.02478
7.21605
7.47063
10.1454
3.98713
1.36532
2.34322
5.67155
6.81161
6.84227
6.85562
6.85259
6.85634
6.8569
6.85267
6.85555
6.78083
6.80303
6.6835
6.81666
7.09495
8.43981
7.27621
7.58946
11.1393
0.229382
1.45887
2.54251
5.90693
6.81969
6.84578
6.84715
6.85465
6.85165
6.85666
6.85706
6.85461
6.78787
6.78649
6.65081
6.89971
7.34595
8.64388
7.22618
7.34424
10.008
0.387015
1.77217
3.11108
6.33423
6.83211
6.84536
6.84921
6.85757
6.8539
6.85459
6.85796
6.85202
6.7875
6.78589
6.76124
6.85517
7.51002
8.98924
7.12721
7.059
6.94257
3.87076
2.63778
1.7549
0.746419
1.30896
2.92142
4.3968
6.64654
6.83883
6.84183
6.85345
6.85705
6.85745
6.85829
6.85528
6.85077
6.77603
6.79473
6.76919
6.95429
7.66512
9.54546
7.07706
6.92223
6.9998
7.35767
7.01177
6.62211
6.59699
6.54652
6.64367
6.84766
6.85561
6.84207
6.84259
6.84838
6.8559
6.85687
6.85688
6.85822
6.8613
6.69895
6.84916
6.80214
7.11302
8.14419
10.0904
7.08024
6.84453
6.92324
7.06527
7.0426
6.967
6.94212
6.95544
6.94822
6.87608
6.82901
6.83212
6.82632
6.8215
6.85344
6.86123
6.85942
6.85858
6.90419
6.91382
7.0123
6.8374
7.2161
8.12665
10.48
7.25802
6.88681
6.94255
6.99629
6.99419
6.96861
6.97705
6.95317
6.90371
6.86232
6.85653
6.85025
6.85297
6.84215
6.86142
6.8681
6.85822
6.86086
6.90472
7.09802
7.25383
6.87435
7.32186
8.39081
11.1921
7.70079
7.09253
7.05457
7.02877
7.00393
6.97192
6.98564
6.93786
6.87148
6.86135
6.86308
6.86627
6.86965
6.86346
6.86429
6.86291
6.85668
6.86978
7.00013
7.59369
8.84661
6.86415
7.20262
8.38996
11.6077
8.04256
7.54495
7.32354
7.163
7.08254
7.03585
7.07037
7.09234
7.03171
6.91509
6.83937
6.8403
6.81926
6.78477
6.89462
6.66016
6.66072
6.7862
8.87564
14.4304
17.2538
6.87888
7.30666
8.69372
13.0173
9.78898
9.00801
9.0533
9.89503
12.48
13.5516
13.8716
15.1446
16.5571
17.485
17.631
17.9861
18.7971
19.2635
20.0699
21.376
21.0265
20.7787
21.8079
22.0092
22.7247
6.9291
7.25209
8.9016
12.1748
12.137
10.5844
10.8103
12.5249
11.475
14.7493
15.1111
15.5769
15.9632
15.2168
15.7798
18.9088
20.3926
21.1025
19.2532
22.3526
21.2094
19.0738
18.7963
19.0705
19.4041
6.88582
7.09402
7.97802
10.1004
12.6675
12.4296
12.1543
11.9037
12.0176
12.4665
13.2018
13.8062
13.7909
14.0221
14.1465
15.4076
15.2796
17.3982
16.9337
16.6567
16.0119
19.8193
18.1137
16.4406
15.9894
6.73313
7.15586
7.6761
9.25425
12.3161
14.8313
14.8743
13.9059
13.8712
13.1507
12.7544
13.2918
12.9094
12.3682
11.6931
11.0688
12.8997
11.3335
11.2965
11.6046
13.2123
14.9321
14.184
13.6196
13.6066
6.78929
6.91093
7.61108
8.23099
12.5757
15.0338
17.2946
17.6647
16.1531
14.6901
11.8134
11.2388
9.4997
9.47491
8.0416
8.36991
8.1179
7.45444
8.1683
8.68343
11.7068
13.0066
12.9021
11.8586
12.8778
6.76621
6.94434
7.81979
10.5819
14.4396
18.0548
20.8441
20.6695
21.5497
21.6562
21.3023
21.0324
20.8749
20.7979
20.5741
20.3196
19.9708
19.6139
19.3134
19.0532
18.79
18.5085
17.997
17.1788
16.5773
6.75237
6.8661
7.26628
9.95135
11.0845
14.5866
18.8668
21.2152
21.6954
22.9935
23.5386
23.7426
24.8501
25.2022
24.9779
24.7465
24.5716
24.0698
23.8866
23.8304
23.6139
23.6597
22.1085
20.2209
20.6356
6.65099
6.87909
7.18533
9.22762
7.69617
7.32829
7.47132
7.19158
6.82021
6.74812
6.84784
7.24935
7.61472
7.85408
7.47009
7.77401
7.80086
7.42521
7.65413
7.67751
7.48379
7.69524
7.72663
7.96459
13.761
6.68054
6.82146
7.10063
8.58046
7.12228
6.87855
6.88061
6.89792
6.946
6.9289
6.8802
6.87427
6.88352
6.86857
6.85582
6.85389
6.84957
6.84596
6.84526
6.84688
6.84884
6.86045
6.91473
6.61735
7.08098
6.67712
6.81499
7.10389
8.59588
7.1315
6.85506
6.89709
7.09547
7.1388
7.02119
6.90813
6.88065
6.89438
6.87963
6.85606
6.85063
6.85615
6.85399
6.85345
6.85571
6.85703
6.85292
6.8894
7.01074
7.13153
6.69215
6.79419
7.02994
8.03751
7.04716
6.97872
7.38667
7.9375
3.885
4.93214
5.2548
5.72658
6.30857
6.73147
6.84809
6.84148
6.84706
6.85647
6.84628
6.85811
6.85808
6.86076
6.86152
6.78064
7.05431
6.68176
6.80142
7.04111
7.99646
7.14798
7.19467
8.60201
7.41304
2.57664
1.89902
1.2999
1.20474
2.15745
4.32721
6.50359
6.83095
6.84194
6.85466
6.855
6.85867
6.85591
6.85134
6.85476
6.81688
6.96278
6.6801
6.81634
7.08392
8.37364
7.20807
7.28912
9.40244
5.38865
2.36844
1.7
1.15858
1.15052
3.06523
5.05906
6.58747
6.83384
6.84522
6.85655
6.8511
6.86004
6.85717
6.84814
6.85526
6.83862
6.94964
6.65266
6.90124
7.34053
8.60817
7.18485
7.18315
7.4922
3.6297
2.3059
1.5884
1.08065
1.19604
3.63209
5.3866
6.70057
6.83728
6.84317
6.84859
6.86091
6.85566
6.85724
6.85464
6.85738
6.83829
6.94798
6.75996
6.85746
7.52565
9.06731
7.09167
6.99455
7.23553
5.09153
4.6727
3.98604
3.36585
3.32437
4.23006
5.94805
6.79582
6.84062
6.84975
6.8546
6.85727
6.85074
6.85365
6.85483
6.85381
6.81488
6.95939
6.76811
6.94346
7.50978
9.48133
7.04234
6.86262
6.92026
7.13247
7.0276
6.85377
6.81599
6.83625
6.86829
6.88984
6.8591
6.84516
6.8585
6.85584
6.8579
6.85136
6.85392
6.85969
6.87476
6.78152
7.06241
6.80218
7.12593
8.11018
9.96773
7.0775
6.82344
6.89892
6.9609
6.98382
6.94492
6.91866
6.9262
6.92074
6.8782
6.85508
6.85242
6.86105
6.85914
6.86005
6.85596
6.86158
6.85423
6.91074
7.01857
7.21483
6.83851
7.22055
8.19025
10.5867
7.33172
6.89194
6.95009
6.97563
6.97234
6.94669
6.9283
6.91082
6.88474
6.8592
6.85069
6.85566
6.85634
6.85725
6.85794
6.86236
6.85897
6.85488
6.90636
7.21699
7.47232
6.87715
7.33155
8.38452
11.182
7.63777
7.10556
7.0691
7.0378
7.00497
6.96861
6.94786
6.90567
6.86591
6.85709
6.86451
6.86029
6.86099
6.86258
6.8597
6.85816
6.85596
6.86298
7.03603
7.80053
9.27576
6.86659
7.22538
8.47594
11.5703
8.03057
7.55486
7.32956
7.16556
7.08794
7.03456
7.02805
7.04118
7.00924
6.94624
6.83534
6.76083
6.68627
6.78432
6.782
6.6292
6.59878
6.68488
9.04669
15.4798
18.2935
6.88214
7.32212
8.81199
12.9993
9.79762
9.08381
8.92669
9.55078
12.228
13.8293
14.1879
15.7426
17.3069
18.3748
18.0415
18.3461
19.4127
20.4582
20.9288
22.2864
21.4813
21.7102
22.2889
22.419
23.0033
7.03059
7.4
8.97764
12.2105
11.9286
10.4055
10.8882
12.3038
12.1317
15.1159
16.1191
16.6942
17.3051
17.4102
18.3015
17.9198
18.7574
16.1901
19.5524
18.6906
20.9472
20.711
20.8
18.5657
18.3628
6.92672
7.28087
8.00663
10.1644
12.8795
12.7334
12.0531
11.8673
11.9636
12.4001
12.7071
14.7727
13.4353
13.2484
12.7536
13.4489
12.8319
13.2571
11.074
12.4283
12.7296
14.1735
11.9855
11.8528
12.5605
6.76599
7.15967
7.67229
9.46305
12.5563
14.9689
15.1583
14.2831
13.1904
12.9266
11.3989
11.8493
10.0865
10.9564
8.77806
10.4299
9.30469
7.92572
8.40678
7.79247
9.58309
10.3068
11.1062
10.922
11.0002
6.79265
6.90072
7.74059
8.57551
12.9618
13.6781
17.5735
18.3109
16.7239
14.8061
12.5524
11.3724
8.62787
8.92616
8.51516
8.25449
8.05399
7.8789
7.88479
8.08465
8.70365
9.34697
9.58577
10.6164
10.7009
6.7608
6.91108
7.6418
10.5696
14.6127
18.341
21.3896
21.1746
21.9819
21.9973
21.6269
21.1615
20.5862
21.3374
21.0893
20.8463
20.5259
20.1605
19.8081
19.4719
19.1468
18.8431
18.3336
17.1362
16.7568
6.75213
6.86416
7.33406
9.93627
11.1008
15.1168
19.6624
21.8741
21.8262
23.032
23.5284
24.22
25.1966
25.6482
25.1317
24.818
24.7035
24.2698
23.966
23.7146
23.3548
23.318
22.1074
19.6184
20.6551
6.65775
6.88131
7.15828
9.25314
7.67102
7.4043
7.45097
7.13185
6.57726
6.98404
6.84391
6.96783
7.94386
7.42363
7.58154
7.76416
7.64225
7.48939
7.54126
7.67798
7.62736
7.67069
7.6731
8.34332
13.615
6.69317
6.82973
7.19207
8.69534
7.15275
6.90412
6.88806
6.89963
6.92374
6.91912
6.88405
6.88239
6.88537
6.87484
6.86337
6.85979
6.85733
6.85462
6.85524
6.85527
6.85721
6.872
6.96564
6.84868
7.37109
6.67634
6.82433
7.13343
8.50445
7.11257
6.86027
6.87157
6.94145
7.04377
6.97675
6.90739
6.88465
6.89354
6.87885
6.86471
6.85966
6.85795
6.86461
6.86526
6.8623
6.86745
6.86898
6.95824
7.19495
7.34123
6.68
6.80824
7.06453
8.09995
7.03273
6.94176
7.08418
8.02802
6.70509
6.79094
6.77918
6.80341
6.88121
6.89223
6.86899
6.85716
6.85692
6.8633
6.86588
6.86546
6.86423
6.86402
6.9157
7.08314
7.23588
6.68061
6.80655
7.04414
8.10006
7.12027
7.06373
7.66469
8.44651
5.52321
5.99168
5.80818
5.73772
6.27852
6.69754
6.85277
6.85035
6.85203
6.86089
6.86366
6.8642
6.86076
6.86375
6.89197
7.08162
7.16792
6.6772
6.82944
7.10344
8.36207
7.15312
7.12424
7.78386
8.01482
5.50416
5.94327
5.73443
5.88439
6.66305
6.895
6.87354
6.85252
6.85051
6.86333
6.867
6.86643
6.86148
6.86395
6.89607
7.08416
7.14912
6.67161
6.91416
7.37124
8.64109
7.15484
7.111
7.7317
6.08439
5.48196
5.91265
5.68758
6.11358
6.78985
6.91642
6.88072
6.85339
6.86339
6.86009
6.86658
6.86257
6.86846
6.8607
6.89305
7.06253
7.13805
6.762
6.87412
7.54572
9.16771
7.09577
6.93637
7.0673
7.40804
6.79115
6.51285
6.36841
6.53866
6.73079
6.88044
6.87227
6.85356
6.85506
6.86301
6.86902
6.86406
6.85738
6.86185
6.89151
7.0691
7.16508
6.77135
6.94974
7.30109
9.41135
7.04746
6.84331
6.90432
6.99127
7.00113
6.93648
6.91426
6.93913
6.95844
6.90659