/*--------------------------------*- C++ -*----------------------------------*\
  =========                 |
  \\      /  F ield         | OpenFOAM: The Open Source CFD Toolbox
   \\    /   O peration     | Website:  https://openfoam.org
    \\  /    A nd           | Version:  6
     \\/     M anipulation  |
\*---------------------------------------------------------------------------*/
FoamFile
{
    version     2.0;
    format      ascii;
    class       volScalarField;
    location    "10";
    object      p;
}
// * * * * * * * * * * * * * * * * * * * * * * * * * * * * * * * * * * * * * //

dimensions      [0 2 -2 0 0 0 0];

internalField   nonuniform List<scalar> 
230684
(
-110.104
-111.844
-115.695
-122.489
-149.451
-201.345
-204.445
-174.747
-165.82
-163.126
-162.342
-163.471
-164.382
-162.594
-157.604
-149.755
-139.386
-127.277
-114.83
-101.492
-86.558
-70.4473
-52.1481
-31.2574
-11.9069
-109.408
-110.053
-111.539
-113.243
-143.691
-194.176
-225.298
-159.617
-154.091
-153.23
-155.448
-162.127
-166.144
-164.169
-158.124
-149.692
-139.714
-127.937
-116.123
-103.078
-88.1767
-72.4548
-51.3407
-25.5506
-8.2538
-108.757
-108.32
-106.31
-111.869
-110.558
-217.296
-212.26
-166.706
-149.485
-155.271
-152.034
-163.403
-173.685
-168.487
-155.282
-148.237
-138.259
-128.795
-119.461
-107.16
-90.2671
-70.8617
-42.2606
-16.7568
-4.90479
-108.906
-108.11
-104.628
-127.113
-113.17
-195.281
-220.611
-162.782
-161.448
-152.68
-127.507
-180.891
-247.869
-172.289
-136.193
-143.225
-134.424
-126.944
-116.15
-102.968
-83.462
-60.1563
-32.2408
-13.478
-4.66178
-109.067
-108.358
-105.145
-118.906
-135.072
-193.363
-184.115
-160.169
-158.113
-152.887
-115.548
-257.461
-284.231
-142.241
-143.24
-130.583
-131.952
-124.827
-112.563
-98.5527
-79.0101
-54.4171
-26.4004
-11.3183
-4.14748
-109.631
-108.439
-103.542
-101.078
-85.5387
-140.68
-178.712
-190.817
-189.026
-157.874
-141.201
-164.088
-185.586
-138.649
-132.591
-143.04
-130.051
-123.801
-112.118
-96.2173
-76.1731
-51.0839
-23.614
-10.1305
-3.88004
-111.939
-111.227
-105.732
-95.9006
-74.9059
-138.679
-113.812
-43.5855
-215.017
-199.857
-157.647
-165.997
-155.137
-144.44
-139.415
-137.392
-131.077
-124.627
-112.772
-95.8749
-74.3195
-49.686
-22.5567
-9.48928
-3.72208
-115.313
-115.314
-111.714
-114.992
-121.39
-108.539
-58.6426
-92.7958
-293.847
-245.87
-184.342
-155.536
-146.379
-132.598
-135.981
-137.644
-131.757
-125.151
-113.47
-95.7808
-74.4709
-50.2173
-22.3651
-9.36671
-3.67525
-118.927
-119.337
-116.904
-126.411
-125.308
-98.9606
-69.7239
-254.519
-290.976
-229.937
-188.527
-169.75
-151.107
-135.059
-141.574
-142.074
-137.783
-129.819
-116.035
-98.3815
-77.0674
-51.1695
-22.6135
-9.64279
-3.77662
-122.554
-123.239
-121.377
-133.943
-128.997
-108.224
-94.2416
-161.813
-209.022
-190.469
-185.201
-192.287
-178.965
-148.348
-148.471
-148.16
-146.073
-137.762
-122.817
-103.728
-81.0755
-53.2959
-23.5255
-10.1019
-3.96767
-126.179
-127.165
-125.833
-139.585
-117.703
-115.583
-62.2377
-146.873
-215.371
-187.143
-184.815
-186.006
-172.243
-161.638
-158.927
-153.384
-150.709
-138.742
-129.161
-111.323
-88.448
-59.4233
-26.2795
-10.8618
-4.17387
-129.695
-130.964
-130.803
-149.154
-148.104
-137.339
-179.999
-140.181
-253.63
-180.013
-141.389
-227.473
-185.238
-175.18
-188.371
-175.17
-167.775
-140.44
-130.298
-138.021
-89.9018
-66.1024
-29.5378
-11.6001
-4.11705
-132.878
-134.219
-135.014
-157.539
-164.009
-168.876
-183.892
-168.106
-243.107
-209.361
-196.708
-212.981
-193.651
-178.095
-218
-106.753
-180.137
-155.665
-137.552
-152.788
-89.9189
-70.4089
-32.1726
-13.448
-2.89691
-135.612
-136.743
-137.431
-163.048
-175.383
-187.37
-199.934
-211.506
-226.704
-229.153
-229.234
-226.799
-233.167
-210.676
-229.133
-226.589
-194.089
-163.399
-132.374
-149.336
-114.869
-105.107
-41.0879
-14.8597
-3.76502
-138.408
-139.039
-137.893
-161.807
-183.003
-202.251
-221.096
-234.757
-242.101
-241.58
-223.872
-172.939
-324.404
-263.678
-207.036
-217.211
-191.771
-171.908
-154.859
-148.938
-117.718
-93.0063
-46.3858
-20.8193
-4.21334
-142.962
-143.566
-139.612
-147.865
-190.583
-220.745
-243.378
-258.961
-265.36
-259.692
-233.025
-179.405
-377.716
-261.376
-197.561
-203.119
-219.996
-173.883
-147.618
-186.583
-139.036
-86.855
-41.4904
-19.0082
-4.82711
-149.617
-151.878
-156.214
-162.921
-194.456
-230.992
-249.06
-265.836
-269.07
-259.996
-242.973
-185.593
-299.656
-268.083
-276.983
-195.828
-223.037
-186.83
-186.527
-170.587
-122.141
-76.2492
-50.1955
-23.6654
-6.49733
-156.571
-159.647
-165.447
-172.302
-191.669
-217.525
-237.314
-252.318
-256.239
-248.938
-243.872
-237.268
-253.212
-250.739
-244.312
-220.44
-249.626
-168.049
-218.618
-170.635
-100.772
-65.3595
-45.9676
-27.7632
-7.77674
-161.951
-164.604
-170.038
-177.366
-192.599
-215.555
-236.514
-294.91
-251.337
-245.752
-229.383
-187.863
-269.318
-238.008
-231.905
-220.6
-197.236
-151.715
-214.841
-152.657
-92.0585
-68.4399
-48.2982
-29.2785
-8.9528
-164.684
-166.703
-170.78
-177.158
-188.982
-205.538
-220.815
-248.621
-265.033
-268.71
-269.048
-270.007
-264.764
-243.115
-229.433
-218.193
-199.368
-169.256
-182.528
-141.703
-96.6747
-72.9803
-51.372
-31.2434
-10.4356
-110.585
-111.659
-114.479
-121.933
-149.467
-193.663
-201.378
-176.806
-169.82
-168.336
-167.592
-167.937
-167.592
-164.429
-158.28
-149.912
-139.236
-126.997
-114.738
-101.93
-87.4282
-71.5532
-53.2447
-31.131
-12.1983
-109.974
-110.162
-110.733
-111.109
-143.132
-191.398
-259.715
-164.282
-160.942
-161.071
-160.917
-165.33
-167.469
-164.225
-157.664
-149.192
-139.101
-127.211
-115.411
-102.865
-87.9917
-72.5472
-51.555
-25.4567
-7.81575
-109.35
-108.747
-106.779
-111.061
-92.4422
-165.445
-157.944
-158.14
-154.364
-164.174
-171.619
-169.241
-155.524
-146.066
-136.861
-128.217
-118.955
-107.009
-90.1744
-70.2226
-42.3934
-16.8776
-4.50126
-109.63
-109.287
-105.708
-122.753
-109.807
-171.526
-164.541
-156.188
-135.093
-174.512
-147.438
-142.961
-134.97
-126.353
-115.905
-102.793
-83.2259
-59.7709
-31.6803
-12.7447
-3.89179
-109.744
-109.052
-105.966
-117.639
-133.502
-182.053
-170.861
-165.531
-163.403
-156.705
-132.425
-139.647
-136
-132.024
-123.893
-112.087
-98.5274
-78.8057
-53.5341
-25.6364
-10.4995
-3.34474
-110.369
-109.232
-104.511
-100.427
-71.7047
-180.763
-162.794
-146.466
-157.638
-173.426
-139.935
-138.228
-132.538
-123.515
-111.641
-96.169
-75.8785
-50.2816
-22.8641
-9.26281
-3.05072
-112.622
-111.819
-106.481
-95.442
-53.1765
-66.7772
-165.913
-140.507
-139.187
-136.236
-130.928
-124.552
-112.765
-95.8332
-74.2
-49.2546
-21.7166
-8.63036
-2.90046
-115.827
-115.656
-112.013
-114.119
-123.22
-101.339
-58.7941
3.38426
-154.026
-137.379
-139.157
-137.224
-132.248
-125.354
-113.233
-95.6108
-74.439
-49.7151
-21.3683
-8.44007
-2.85795
-119.316
-119.477
-117.003
-124.44
-123.479
-101.645
-72.5353
-158.869
-140.295
-144.101
-142.679
-138.583
-130.057
-116.245
-98.4183
-76.8061
-50.2175
-21.6148
-8.63315
-2.93145
-122.891
-123.252
-121.32
-131.371
-128.973
-111.915
-98.2962
-182.445
-205.272
-190.905
-187.531
-200.501
-171.376
-150.392
-151.163
-149.999
-147.385
-138.129
-122.841
-103.988
-80.6942
-52.5668
-22.5549
-9.11879
-3.10099
-126.455
-127.07
-125.687
-136.851
-122.133
-123.276
-67.787
-178.796
-168.613
-159.22
-158.37
-155.447
-154.846
-142.985
-130.039
-111.451
-88.0152
-58.2745
-24.9592
-10.159
-3.35679
-129.921
-130.72
-130.426
-145.638
-150.679
-143.244
-175.463
-175.49
-257.157
-160.234
-143.78
-141.22
-133.564
-92.9506
-69.6462
-28.7411
-11.461
-3.45806
-133.08
-133.863
-134.47
-153.634
-166.276
-171.433
-181.639
-160.488
-234.923
-191.794
-184.085
-208.047
-165.558
-186.516
-153.357
-142.926
-100.68
-71.498
-29.9908
-13.6072
-3.183
-135.806
-136.307
-137.127
-159.346
-178.205
-189.776
-201.918
-212.87
-223.26
-226.528
-228.078
-230.098
-227.994
-213.594
-215.992
-233.825
-194.016
-164.835
-120.596
-158.798
-26.948
-16.1035
-3.52111
-138.693
-138.62
-137.624
-158.911
-186.08
-204.874
-222.354
-235.823
-242.647
-241.89
-228.095
-175.871
-236.048
-231.886
-221.196
-199.086
-173.106
-151.972
-146.622
-116.864
-89.6331
-37.2772
-21.5568
-4.50142
-143.271
-143.202
-137.887
-146.771
-194.106
-223.82
-245.874
-261.02
-267.261
-262.377
-236.214
-179.81
-245.638
-221.796
-176.748
-148.574
-50.6973
-22.5255
-5.93014
-149.747
-151.329
-154.619
-163.093
-197.444
-233.401
-251.739
-267.858
-270.788
-262.786
-244.462
-182.53
-248.849
-236.885
-181.067
-181.209
-170.758
-124.196
-82.9725
-54.4974
-27.5012
-8.69407
-156.787
-159.48
-164.604
-172.479
-193.425
-220.532
-236.718
-256.119
-258.459
-252.24
-246.831
-236.027
-249.226
-250.325
-240.622
-245.338
-154.739
-176.812
-120.836
-73.0997
-50.7242
-30.5225
-9.73226
-162.295
-164.589
-169.307
-176.898
-193.186
-216.281
-240.07
-369.072
-253.533
-250.146
-230.744
-174.954
-243.208
-233.632
-221.637
-201.746
-123.726
-163.372
-101.134
-75.1931
-53.1646
-32.3712
-10.6808
-164.968
-166.811
-170.18
-176.154
-188.617
-205.145
-220.287
-248.221
-264.931
-269.315
-269.661
-268.099
-264.702
-248.965
-233.416
-221.581
-202.276
-165.709
-176.459
-144.494
-101.708
-77.0645
-54.5471
-34.0211
-12.0251
-110.561
-111.128
-113.387
-121.659
-148.761
-187.697
-197.986
-186.047
-179.566
-176.489
-174.071
-172.671
-170.466
-165.479
-157.636
-148.721
-138.163
-125.964
-113.85
-101.297
-87.4479
-71.8666
-53.8965
-31.5667
-12.5067
-110.195
-109.996
-109.59
-110.738
-148.134
-184.158
-199.532
-179.067
-173.654
-170.7
-167.938
-169.184
-169.177
-164.361
-156.289
-147.618
-137.806
-125.813
-114.314
-102.288
-88.2197
-72.6904
-52.1484
-26.7707
-8.41858
-109.869
-109.392
-107.135
-115.184
-133.921
-182.551
-186.201
-181.004
-167.214
-163.374
-160.945
-166.168
-168.609
-165.32
-154.056
-143.777
-135.962
-127.493
-118.119
-106.457
-90.4196
-70.0745
-43.0652
-17.7108
-4.91621
-110.193
-109.704
-107.452
-122.905
-130.732
-177.72
-178.73
-173.211
-166.983
-160.23
-149.021
-169.222
-167.994
-166.101
-150.236
-140.658
-133.845
-125.637
-115.661
-102.281
-83.1664
-58.7933
-31.5789
-12.6881
-3.96739
-110.456
-110.02
-107.524
-119.896
-137.592
-169.097
-164.287
-165.572
-165.187
-159.642
-146.897
-164.686
-162.603
-155.964
-149.916
-138.402
-131.242
-123.53
-112.549
-98.186
-78.3858
-52.2554
-25.3622
-10.2435
-3.29527
-111.272
-110.505
-106.414
-106.994
-96.1516
-199.572
-165.064
-153.302
-159.087
-160.212
-145.918
-145.507
-136.755
-130.515
-122.929
-111.748
-96.0713
-75.4527
-49.166
-22.4817
-8.93017
-2.95523
-113.433
-112.858
-108.111
-103.587
-91.0336
-133.193
-160.391
-142.804
-138.868
-135.153
-130.23
-124.165
-112.883
-95.2765
-74.0203
-48.2038
-21.108
-8.30695
-2.78772
-116.421
-116.29
-112.719
-115.911
-120.284
-101.573
-65.4096
-17.3353
-149.486
-142.495
-140.315
-137.957
-132.834
-125.256
-113.184
-95.4128
-74.1608
-48.3152
-20.5841
-8.12054
-2.74356
-119.729
-119.846
-117.105
-124.523
-123.862
-104.378
-77.2356
-176.056
-158.069
-146.858
-145.789
-144.149
-139.086
-130.058
-116.077
-98.3799
-76.1703
-48.7809
-20.7171
-8.27688
-2.80219
-123.174
-123.477
-121.264
-131.373
-131.474
-117.724
-111.472
-190.914
-199.531
-187.323
-191.491
-216.638
-165.215
-155.848
-154.073
-151.491
-147.584
-137.846
-122.4
-103.668
-79.7995
-50.852
-21.6814
-8.75266
-2.94942
-126.628
-127.126
-125.429
-137.791
-138.165
-131.509
-116.358
-202.79
-189.482
-189.107
-189.618
-192.483
-179.247
-170.598
-165.94
-160.971
-157.628
-146.13
-129.286
-109.757
-85.7859
-55.5337
-23.8195
-9.69865
-3.17707
-129.971
-130.537
-129.707
-146.013
-154.721
-154.924
-166.482
-187.935
-196.856
-187.28
-207.289
-198.493
-188.384
-186.919
-181.508
-172.468
-180.831
-151.307
-133.786
-119.198
-93.48
-63.7266
-26.8773
-10.9464
-3.34708
-133.014
-133.552
-133.367
-153.852
-168.832
-174.931
-184.133
-190.966
-200.61
-182.93
-234.584
-246.017
-204.996
-197.252
-196.022
-187.327
-181.607
-157.966
-142.652
-130.329
-102.644
-68.4656
-29.5057
-12.81
-3.5579
-135.678
-135.918
-136.312
-159.782
-180.252
-191.656
-204.174
-214.521
-221.794
-223.668
-226.845
-226.791
-226.781
-217.664
-211.429
-203.888
-189.584
-165.239
-145.359
-135.212
-109.237
-73.6586
-33.5183
-15.5179
-4.24491
-138.458
-137.823
-136.842
-159.616
-187.931
-206.718
-223.883
-237.224
-243.622
-243.072
-234.301
-229.183
-250.346
-240.728
-226.483
-217.478
-199.006
-175.679
-155.173
-140.249
-113.869
-80.9931
-42.7037
-21.226
-5.85201
-142.817
-142.204
-135.946
-147.754
-195.938
-226.153
-248.842
-264.5
-270.337
-265.974
-251.583
-254.968
-268.35
-254.693
-235.601
-231.234
-213.921
-187.308
-168.17
-147.171
-120.201
-87.8077
-54.2253
-27.5625
-8.26519
-149.285
-150.586
-153.449
-163.506
-199.347
-234.261
-252.362
-269.511
-274.933
-266.556
-254.602
-251.363
-273.105
-257.717
-246.817
-243.394
-220.76
-192.246
-183.644
-153.337
-121.822
-84.2688
-57.7295
-33.0075
-11.5319
-156.466
-158.907
-163.854
-173.057
-194.977
-220.382
-237.663
-255.753
-261.248
-259.758
-255.245
-252.811
-258.558
-248.944
-247.293
-243.115
-220.293
-195.376
-193.332
-155.32
-118.13
-82.716
-58.4959
-36.5527
-13.2322
-162.088
-164.127
-168.565
-176.876
-193.999
-216.91
-240.48
-307.069
-259.313
-257.855
-243.226
-256.219
-264.683
-250.269
-238.999
-227.583
-206.883
-197.462
-195.987
-150.348
-111.327
-83.2362
-59.6125
-37.9922
-13.9406
-164.808
-166.292
-169.301
-175.51
-188.817
-205.684
-221.778
-247.907
-265.089
-270.25
-271.363
-270.411
-268.866
-254.42
-238.854
-225.902
-206.86
-191.941
-181.501
-146.896
-109.649
-82.3474
-59.03
-38.1085
-14.5451
-110.451
-110.848
-112.815
-121.844
-154.478
-186.951
-200.161
-196.409
-189.64
-183.595
-178.61
-175.135
-171.285
-165.176
-156.367
-147.163
-137.079
-125.013
-113.233
-100.834
-87.5883
-72.382
-54.6477
-32.3311
-12.7063
-110.338
-110.005
-109.373
-111.073
-145.312
-180.727
-195.538
-189.356
-183.676
-178.017
-173.049
-171.745
-169.638
-164.5
-155.307
-146.103
-137.083
-124.95
-113.857
-101.9
-88.6874
-73.0134
-52.6449
-27.7436
-8.8857
-110.366
-110.105
-108.214
-119.794
-146.332
-173.35
-182.123
-178.855
-172.265
-168.986
-167.263
-168.835
-167.973
-163.069
-153.477
-143.907
-135.804
-127.063
-117.396
-105.993
-90.7468
-70.4201
-43.614
-18.3168
-5.25271
-110.805
-110.725
-109.605
-126.439
-143.55
-163.31
-170.489
-170.245
-167.999
-164.782
-159.625
-163.78
-164.652
-160.238
-150.557
-141.14
-134.025
-125.288
-115.347
-101.595
-83.0396
-58.2079
-31.5521
-12.8439
-4.11715
-111.322
-111.35
-109.936
-124.419
-141.02
-155.135
-157.733
-160.865
-165.177
-162.504
-156.077
-159.165
-160.176
-155.472
-149.063
-139.145
-131.358
-123.47
-112.796
-97.5256
-77.9549
-51.605
-25.2477
-10.2859
-3.38275
-112.338
-112.103
-109.472
-116.197
-125.978
-139.808
-133.34
-161.084
-199.625
-166.894
-158.746
-163.128
-158.686
-149.3
-144.68
-136.496
-130.415
-122.967
-111.882
-95.7809
-75.0672
-48.6394
-22.1624
-8.89813
-3.01198
-114.361
-114.19
-110.892
-113.539
-119.089
-117.302
-92.5494
-61.3865
-159.154
-143.642
-140
-135.765
-130.554
-124.418
-112.813
-95.0395
-73.7814
-47.2113
-20.6716
-8.2414
-2.81058
-117.097
-117.144
-114.32
-119.739
-121.3
-102.986
-70.4621
-36.5002
-151.302
-143.266
-141.502
-139.173
-133.549
-125.928
-113.15
-95.3209
-73.6646
-46.8196
-20.0309
-8.04341
-2.74181
-120.185
-120.371
-117.964
-126.714
-126.636
-108.97
-84.8951
-183.147
-158.066
-149.312
-147.192
-145.171
-139.553
-130.304
-115.871
-97.9849
-75.5902
-47.5019
-20.1452
-8.17005
-2.78632
-123.463
-123.845
-121.959
-133.555
-135.675
-125.419
-127.214
-189.085
-192.907
-187.724
-193.532
-218.695
-165.563
-159.14
-156.342
-152.582
-147.206
-137.127
-121.788
-103.083
-78.6296
-49.2166
-21.0394
-8.62537
-2.93322
-126.768
-127.276
-126.001
-140.688
-145.786
-140.771
-145.131
-180.392
-188.732
-190.66
-191.988
-190.937
-181.608
-174.087
-168.156
-162.456
-156.5
-145.064
-128.389
-108.467
-83.4781
-53.0366
-22.9557
-9.51617
-3.1855
-129.947
-130.499
-129.908
-148.542
-158.985
-160.905
-170.478
-185.009
-191.971
-192.627
-201.408
-198.664
-192.553
-188.261
-182.161
-174.149
-166.671
-153.616
-133.981
-115.206
-90.278
-58.4175
-25.7209
-10.7805
-3.45796
-132.871
-133.329
-133.279
-156.025
-171.824
-178.336
-187.939
-195.9
-202.48
-202.072
-216.345
-217.535
-208.992
-200.474
-194.475
-185.256
-176.342
-159.496
-140.48
-123.248
-98.3982
-64.1492
-29.1021
-12.7607
-3.85347
-135.481
-135.637
-136.305
-161.7
-182.385
-193.901
-206.238
-215.928
-222.356
-224.819
-225.92
-224.87
-225.203
-218.608
-210.604
-200.584
-186.599
-167.116
-148.105
-129.982
-104.46
-70.4658
-34.3802
-16.1492
-4.77307
-138.143
-137.461
-136.797
-161.165
-189.541
-208.253
-225.28
-238.404
-244.766
-245.095
-239.752
-237.151
-244.138
-237.765
-226.23
-214.433
-198.037
-177.407
-157.255
-137.855
-112.108
-79.5371
-44.2183
-22.9737
-7.00293
-142.392
-141.612
-135.576
-148.407
-196.492
-226.995
-250.343
-267.127
-273.489
-270.242
-261.711
-260.632
-262.035
-254.025
-241.644
-229.752
-213.077
-192.333
-170.288
-145.698
-119.414
-88.2553
-53.622
-30.3238
-9.71633
-148.847
-150.004
-152.709
-163.818
-200.622
-235.64
-256.044
-275.509
-281.618
-275.679
-269.099
-268.877
-267.339
-255.966
-244.764
-237.475
-216.073
-195.904
-181.358
-148.435
-118.705
-88.3257
-62.0078
-37.595
-14.0055
-156.11
-158.555
-163.579
-173.475
-196.87
-223.119
-241.145
-265.643
-274.153
-269.293
-267.657
-271.083
-268.365
-254.996
-244.85
-233.911
-215.057
-197.53
-186.923
-148.827
-118.083
-89.2823
-65.1843
-42.2061
-16.2232
-161.78
-163.822
-168.259
-177.039
-194.869
-217.83
-241.52
-268.793
-267.042
-266.129
-267.096
-273.057
-271.221
-256.543
-242.011
-228.532
-212.346
-199.984
-188.035
-149.193
-117.563
-89.274
-65.8273
-43.1556
-16.8202
-164.534
-165.894
-168.845
-175.409
-189.353
-206.875
-224.511
-246.396
-264.229
-270.674
-272.557
-271.705
-268.575
-256.983
-243.001
-229.126
-211.419
-198.156
-179.826
-148.133
-115.241
-86.7719
-63.5654
-41.5662
-16.6042
-110.365
-110.656
-112.447
-121.713
-152.522
-184.396
-201.895
-203.257
-196.839
-188.184
-180.711
-175.677
-171.008
-164.462
-155.408
-146.154
-136.291
-124.386
-113.13
-100.899
-87.9445
-73.1294
-55.2612
-32.7096
-12.9756
-110.441
-110.048
-109.293
-111.212
-143.492
-176.723
-195.037
-195.872
-190.057
-183.03
-176.325
-173.194
-169.737
-164.04
-154.789
-145.315
-136.958
-124.565
-113.836
-101.792
-89.0453
-73.9111
-53.4288
-28.2548
-9.26113
-110.793
-110.732
-109.2
-122.827
-149.292
-169.769
-179.706
-179.305
-176.02
-173.255
-171.589
-170.957
-168.103
-161.896
-153.626
-144.447
-136.218
-126.966
-116.79
-105.693
-90.8265
-71.0548
-43.9933
-18.7529
-5.44883
-111.449
-111.754
-111.508
-129.76
-148.281
-159.272
-166.034
-168.669
-169.472
-168.507
-165.821
-165.77
-163.612
-158.157
-150.875
-142.067
-134.67
-125.195
-114.87
-101.147
-82.8941
-58.3312
-31.567
-12.9648
-4.17132
-112.194
-112.603
-112.217
-128.551
-143.552
-149.465
-152.872
-158.626
-165.658
-165.035
-161.84
-162.159
-160.015
-155.37
-148.977
-140.302
-132.449
-123.592
-112.469
-97.3077
-77.6278
-51.7805
-25.2633
-10.3206
-3.41308
-113.367
-113.596
-112.341
-123.266
-133.723
-135.108
-130.768
-156.606
-194.181
-168.342
-162.828
-166.14
-160.043
-151.095
-145.411
-137.727
-131.453
-123.261
-111.604
-95.4305
-75.1673
-48.5102
-22.0304
-8.88929
-3.03156
-115.272
-115.454
-113.577
-120.979
-126.439
-117.165
-96.6817
-64.0201
-158.337
-145.589
-141.701
-137.443
-131.813
-124.964
-112.601
-95.0406
-73.5945
-46.7048
-20.4393
-8.20824
-2.81477
-117.758
-117.987
-116.085
-123.969
-125.454
-108.266
-80.3998
-45.3479
-154.07
-145.175
-143.652
-140.759
-134.826
-126.701
-113.242
-95.2235
-73.138
-45.9755
-19.7959
-7.99392
-2.72521
-120.621
-120.907
-119.055
-129.619
-130.803
-115.536
-95.3712
-197.859
-158.955
-151.579
-149.094
-146.311
-140.186
-130.801
-115.671
-97.5865
-74.9111
-46.7626
-19.8928
-8.09899
-2.76505
-123.726
-124.196
-122.79
-136.213
-140.136
-132.745
-136.464
-184.154
-187.76
-187.692
-192.367
-219.195
-167.835
-161.72
-158.309
-154.107
-147.274
-136.561
-121.238
-102.349
-77.7116
-48.409
-20.6219
-8.52951
-2.91288
-126.852
-127.461
-126.64
-143.462
-151.086
-148.83
-156.364
-176.453
-186.03
-190.21
-190.678
-190.307
-182.317
-175.866
-170.25
-163.716
-155.65
-144.045
-127.802
-107.441
-81.7455
-51.3396
-22.3588
-9.37011
-3.16725
-129.87
-130.512
-130.318
-151.123
-163.079
-166.028
-174.454
-185.675
-193.178
-196.448
-198.722
-197.797
-193.849
-189.082
-182.93
-174.113
-164.894
-151.917
-133.878
-113.41
-87.3047
-55.6404
-24.9158
-10.6524
-3.4945
-132.665
-133.143
-133.513
-158.054
-174.673
-181.535
-190.771
-198.913
-205.459
-208.381
-212.682
-212.285
-208.716
-202.589
-195.72
-185.644
-174.565
-159.312
-140.757
-120.48
-94.5331
-61.0161
-28.4269
-12.7562
-4.01418
-135.193
-135.382
-136.315
-163.347
-184.42
-195.974
-208.135
-217.245
-223.798
-226.471
-226.786
-225.589
-223.97
-219.021
-210.601
-199.398
-185.667
-168.23
-148.981
-127.78
-101.984
-67.3735
-34.3388
-16.615
-5.15785
-137.816
-137.192
-136.656
-162.231
-190.775
-209.55
-226.522
-239.434
-245.815
-247.247
-243.924
-242.004
-242.184
-236.151
-225.648
-212.821
-197.49
-178.244
-157.838
-136.599
-110.779
-78.2799
-45.5594
-24.0592
-7.63639
-142.01
-141.2
-135.181
-148.45
-196.679
-227.275
-251.094
-268.793
-276.487
-274.37
-268.234
-264.992
-261.26
-253.148
-241.977
-229.004
-212.757
-193.043
-171.79
-146.131
-119.256
-88.8055
-55.2052
-31.5896
-10.453
-148.44
-149.554
-152.089
-163.815
-201.344
-236.427
-259.13
-278.167
-286.779
-283.575
-276.794
-272.728
-268.282
-256.989
-245.858
-232.539
-215.704
-197.764
-179.315
-151.568
-120.789
-90.9368
-64.6425
-39.8471
-15.3983
-155.798
-158.274
-163.361
-173.645
-198.041
-225.158
-246.718
-270.761
-280.445
-278.345
-275.266
-274.52
-270.087
-257.19
-244.369
-231.659
-214.897
-199.243
-181.784
-152.695
-121.423
-93.3103
-69.0569
-44.9162
-17.9543
-161.497
-163.579
-168.118
-177.1
-195.132
-218.041
-239.994
-260.653
-271.897
-273.374
-272.723
-274.18
-271.184
-258.841
-244.063
-229.236
-213.058
-199.062
-181.89
-152.941
-121.169
-93.1691
-69.2968
-45.4559
-18.4123
-164.239
-165.589
-168.63
-175.444
-189.696
-207.754
-226.14
-246.302
-262.87
-270.89
-273.139
-271.921
-268.148
-258.511
-245.433
-230.263
-212.349
-196.409
-178.77
-151.357
-119.611
-90.9012
-66.7957
-43.1618
-17.7097
-110.27
-110.455
-112.064
-121.092
-151.192
-182.798
-202.24
-206.197
-200.412
-190.885
-181.725
-175.552
-170.477
-163.827
-154.81
-145.594
-135.626
-123.998
-113.256
-101.338
-88.4021
-73.8165
-55.7122
-32.8222
-13.2776
-110.478
-110.04
-109.131
-110.937
-142.403
-173.865
-194.228
-198.825
-193.708
-186.176
-178.454
-173.876
-169.535
-163.603
-154.664
-145.237
-136.89
-124.235
-114.125
-102.044
-89.3796
-74.8972
-54.2685
-28.5215
-9.55186
-111.082
-111.159
-109.897
-124.332
-150.131
-167.753
-178.661
-180.576
-178.768
-176.067
-174.222
-172.424
-168.13
-161.538
-154.038
-145.307
-137.196
-127.076
-117.109
-105.78
-90.7517
-71.7578
-44.2081
-18.9637
-5.53366
-111.966
-112.476
-112.742
-132.176
-150.362
-157.782
-164.289
-168.567
-170.955
-171.15
-169.233
-167.518
-163.449
-157.711
-151.695
-143.181
-135.423
-125.58
-114.696
-101.4
-82.8512
-58.8806
-31.5422
-13.001
-4.1913
-112.905
-113.541
-113.935
-131.667
-145.747
-148.051
-151.543
-158.733
-166.108
-166.917
-165.263
-164.1
-160.453
-155.572
-149.616
-141.81
-133.782
-124.031
-112.235
-97.6556
-77.5955
-52.0067
-25.2553
-10.2811
-3.41133
-114.207
-114.762
-114.578
-127.987
-137.913
-135.241
-132.597
-153.589
-185.268
-170.094
-165.762
-167.399
-161.286
-152.492
-146.701
-139.746
-132.788
-123.666
-111.556
-95.5522
-75.3633
-48.308
-21.9189
-8.82235
-3.0323
-116.027
-116.487
-115.725
-126.089
-131.735
-121.296
-106.281
-78.9742
-164.685
-148.7
-144.144
-139.698
-133.183
-125.578
-112.656
-95.0047
-73.7722
-46.3027
-20.2212
-8.12985
-2.81633
-118.304
-118.732
-117.708
-127.718
-130.219
-115.76
-96.1128
-65.8611
-162.227
-149.547
-146.542
-142.949
-136.204
-127.363
-113.491
-95.1713
-72.8148
-45.5591
-19.6232
-7.91918
-2.72996
-120.964
-121.384
-120.169
-132.403
-135.11
-123.051
-109.426
-246.063
-164.368
-155.586
-152.112
-147.966
-141.172
-131.087
-115.69
-97.3999
-74.1732
-46.432
-19.7316
-8.00676
-2.7636
-123.902
-124.464
-123.597
-138.675
-144.266
-139.042
-143.063
-176.691
-183.275
-185.083
-189.766
-204.799
-172.554
-164.603
-160.666
-155.718
-147.695
-136.707
-121.144
-101.51
-77.1382
-47.8779
-20.3013
-8.40807
-2.90306
-126.867
-127.546
-127.157
-145.717
-155.209
-154.611
-161.969
-175.985
-184.929
-189.405
-189.948
-189.942
-183.467
-177.51
-172.29
-165.054
-155.752
-144.118
-127.689
-106.557
-80.5797
-50.2193
-21.8856
-9.21219
-3.14669
-129.741
-130.408
-130.682
-153.113
-166.402
-169.956
-177.684
-187.298
-194.798
-198.241
-198.605
-198.043
-194.983
-190.443
-184.153
-174.835
-164.62
-151.448
-133.956
-112.387
-85.5259
-53.9822
-24.3109
-10.519
-3.48989
-132.394
-132.876
-133.697
-159.641
-177.085
-184.203
-193.013
-201.37
-207.897
-211.122
-212.345
-211.674
-209.15
-204.191
-196.886
-186.045
-174.581
-159.506
-140.736
-119.322
-92.1292
-59.0249
-27.9123
-12.7455
-4.07102
-134.863
-135.059
-136.231
-164.749
-186.151
-197.767
-209.786
-218.741
-225.195
-228.296
-228.286
-226.501
-224.016
-219.565
-210.822
-199.018
-185.56
-168.852
-148.926
-126.728
-99.9299
-65.6264
-34.2026
-16.9669
-5.36627
-137.464
-136.814
-136.447
-162.901
-191.538
-210.478
-227.558
-240.357
-246.97
-249.098
-247.281
-244.595
-241.967
-235.672
-225.077
-212.174
-197.248
-178.602
-157.875
-135.742
-109.538
-77.6217
-46.2815
-24.7054
-7.90347
-141.643
-140.789
-134.767
-148.256
-196.91
-227.482
-251.579
-269.927
-278.791
-277.614
-272.824
-268.254
-262.299
-252.886
-241.527
-228.404
-211.925
-192.453
-172.371
-147
-119.781
-89.6974
-56.0627
-32.0455
-10.6792
-148.034
-149.158
-151.472
-163.692
-201.693
-236.792
-260.885
-279.947
-289.8
-288.327
-281.82
-275.839
-269.42
-258.41
-245.2
-231.045
-214.558
-196.38
-177.938
-152.244
-122.239
-92.6418
-65.7552
-40.2748
-15.8497
-155.46
-157.97
-163.05
-173.698
-198.653
-226.134
-248.385
-270.212
-282.4
-283.324
-279.733
-276.258
-270.695
-259.045
-245.277
-230.945
-214.079
-196.957
-179.563
-153.682
-123.495
-95.3556
-70.3124
-45.0858
-18.453
-161.203
-163.334
-167.979
-177.074
-195.146
-217.967
-239.408
-259.326
-272.913
-277.06
-275.857
-274.47
-270.441
-259.947
-245.771
-229.937
-212.652
-196.244
-179.177
-153.674
-123.455
-95.3781
-70.5429
-45.3429
-18.6851
-163.954
-165.353
-168.584
-175.555
-190.04
-208.455
-227.06
-246.187
-262.091
-270.679
-272.879
-271.436
-267.506
-259.008
-246.333
-230.347
-212.112
-194.866
-176.988
-152.183
-122.307
-93.7959
-68.6792
-43.4527
-17.9671
-110.161
-110.169
-111.393
-120.378
-150.223
-181.619
-201.586
-206.928
-201.955
-192.503
-182.358
-175.532
-170.38
-163.343
-154.385
-145.271
-135.307
-124.008
-113.354
-101.719
-88.6954
-74.37
-56.1542
-32.8333
-13.4983
-110.437
-109.912
-108.796
-110.561
-141.616
-172.315
-193.342
-200.106
-196.175
-188.237
-179.648
-173.783
-169.676
-163.443
-154.516
-145.306
-136.718
-124.51
-114.372
-102.659
-89.666
-75.6407
-54.8818
-28.5918
-9.65848
-111.203
-111.283
-110.11
-124.938
-150.39
-166.599
-178.184
-181.785
-180.74
-177.911
-175.712
-172.921
-167.875
-161.645
-154.686
-146.273
-137.697
-127.574
-117.701
-106.19
-90.7792
-71.9631
-44.1867
-18.8339
-5.50795
-112.272
-112.793
-113.374
-133.687
-151.443
-157.237
-163.865
-169.016
-171.911
-172.87
-171.191
-168.607
-163.456
-157.891
-152.514
-144.409
-135.992
-126.323
-114.829
-102.028
-83.0733
-59.016
-31.3397
-12.8677
-4.14599
-113.37
-114.088
-114.959
-133.769
-147.415
-148.224
-152.164
-159.589
-166.339
-167.853
-167.421
-165.11
-160.894
-155.859
-150.295
-143.355
-134.682
-124.511
-112.425
-98.1887
-77.9982
-51.9827
-25.0714
-10.1134
-3.35841
-114.773
-115.481
-115.986
-131.041
-140.863
-137.375
-137.278
-152.219
-173.081
-168.864
-167.756
-167.061
-160.904
-153.615
-148.101
-141.94
-133.866
-124.395
-112.196
-96.1795
-75.6998
-48.0544
-21.6334
-8.64897
-2.99105
-116.531
-117.135
-117.077
-129.602
-135.952
-127.066
-120.03
-144.44
-177.869
-169.759
-170.942
-176.81
-164.967
-151.881
-147.588
-142.385
-134.891
-126.32
-113.069
-95.4861
-74.0658
-45.938
-19.8944
-7.96945
-2.79266
-118.669
-119.191
-118.803
-130.823
-134.746
-123.978
-115.315
-169.818
-179.789
-171.356
-175.315
-187.486
-167.651
-153.834
-150.163
-145.451
-137.816
-128.293
-113.95
-95.3908
-72.9325
-45.1443
-19.3301
-7.77756
-2.72312
-121.154
-121.596
-120.938
-134.759
-139.202
-130.714
-126.614
-186.522
-178.935
-175.041
-181.19
-197.783
-170.273
-159.723
-155.731
-150.012
-142.507
-131.578
-115.869
-97.2155
-73.9794
-46.1576
-19.4754
-7.8477
-2.74342
-123.93
-124.479
-124.007
-140.569
-147.916
-144.659
-149.583
-170.144
-178.73
-181.591
-185.266
-190.594
-175.519
-168.051
-163.904
-157.61
-148.541
-137.125
-121.32
-101.069
-76.7842
-47.3879
-19.9273
-8.20803
-2.86057
-126.751
-127.376
-127.378
-147.481
-158.513
-158.91
-165.86
-176.7
-184.815
-189.017
-190.029
-189.458
-184.452
-179.33
-174.645
-166.467
-156.418
-144.451
-127.922
-105.831
-79.8446
-49.3272
-21.4204
-8.9802
-3.07906
-129.491
-130.04
-130.752
-154.557
-169.004
-172.844
-180.037
-188.971
-196.242
-199.502
-199.132
-198.762
-196.165
-191.826
-185.754
-175.957
-165.023
-151.747
-134.163
-111.601
-84.4695
-52.9183
-23.7742
-10.3104
-3.42391
-132.037
-132.395
-133.51
-160.848
-178.991
-186.246
-194.902
-203.396
-209.874
-212.964
-212.949
-212.418
-210.099
-205.465
-197.715
-186.942
-174.929
-159.782
-141.083
-118.521
-90.8665
-57.9011
-27.5055
-12.6261
-4.02035
-134.458
-134.555
-135.981
-165.839
-187.398
-199.111
-211.095
-220.432
-226.728
-230.083
-229.738
-227.729
-225.072
-219.963
-211.114
-199.15
-185.9
-169.199
-148.899
-126.013
-98.8014
-64.9062
-34.0639
-17.0751
-5.32148
-137.063
-136.279
-136.056
-163.361
-192.097
-211.227
-228.465
-241.277
-248.504
-250.888
-249.703
-246.386
-242.51
-235.661
-224.906
-211.867
-197.197
-178.762
-157.6
-135.273
-108.892
-77.503
-46.6795
-25.0742
-7.8865
-141.334
-140.34
-134.149
-148.273
-197.193
-227.762
-251.99
-270.733
-280.338
-280.017
-275.937
-270.829
-263.8
-253.462
-241.496
-227.955
-210.898
-191.799
-172.235
-147.647
-120.523
-90.293
-56.6337
-32.1377
-10.6667
-147.702
-148.701
-150.659
-163.519
-201.899
-237
-261.725
-280.697
-291.006
-290.515
-284.592