/*--------------------------------*- C++ -*----------------------------------*\
  =========                 |
  \\      /  F ield         | OpenFOAM: The Open Source CFD Toolbox
   \\    /   O peration     | Website:  https://openfoam.org
    \\  /    A nd           | Version:  6
     \\/     M anipulation  |
\*---------------------------------------------------------------------------*/
FoamFile
{
    version     2.0;
    format      ascii;
    class       volScalarField;
    location    "45";
    object      epsilon;
}
// * * * * * * * * * * * * * * * * * * * * * * * * * * * * * * * * * * * * * //

dimensions      [0 2 -3 0 0 0 0];

internalField   nonuniform List<scalar> 
230684
(
0.194924
0.172172
0.151508
0.137819
0.244017
0.214237
0.193142
0.0873743
0.0841943
0.08276
0.0818378
0.0807763
0.0815282
0.0834674
0.0871244
0.0937672
0.104557
0.121494
0.145471
0.179391
0.221724
0.272441
0.328225
0.372205
0.403524
0.19341
0.174632
0.300626
0.24124
0.37657
0.355687
0.687509
0.271715
0.209531
0.170264
0.1541
0.157483
0.186653
0.238269
0.27801
0.331201
0.4188
0.553768
0.72196
0.88804
1.04923
1.09862
1.10163
1.05482
0.921903
0.19388
0.173682
0.306404
0.423577
0.340107
1.45533
0.893537
0.840241
0.674289
0.444274
0.398822
0.392227
0.439984
0.435828
0.452509
0.576502
0.838914
1.23366
1.57234
1.67255
1.70104
1.72138
1.33068
0.752784
0.630002
0.19082
0.341148
0.53905
0.390298
0.240461
1.60572
1.2961
0.825695
0.604111
0.964309
1.05741
4.52639
1.56977
0.993566
0.748576
0.3347
0.401069
0.442661
0.441862
0.437058
0.458922
0.507178
0.402894
0.277045
0.237693
0.193627
0.17421
0.300867
0.402179
0.285752
0.300534
0.357687
0.510332
0.540189
0.446827
0.998341
6.35878
1.83476
0.916225
0.779427
0.284414
0.483593
0.496079
0.427023
0.38002
0.394362
0.432031
0.362262
0.220715
0.19539
0.193732
0.173683
0.300215
0.370084
0.321029
0.600064
0.291932
0.367813
1.42483
1.83249
1.4092
1.812
1.42679
0.464698
0.462209
0.169953
0.301234
0.276388
0.23666
0.211007
0.217703
0.282959
0.304638
0.213679
0.18744
0.193848
0.173697
0.300553
0.371712
0.958536
0.553371
0.176306
0.282672
0.244467
0.170167
0.122516
0.264623
0.251853
0.293977
0.181033
0.663052
0.835954
0.818505
0.684531
0.563968
0.479654
0.449869
0.350669
0.22276
0.187438
0.194069
0.173767
0.304298
0.404582
0.252568
0.185629
0.103604
2.58639
1.4374
0.781516
0.586948
0.413938
1.2857
2.47861
3.673
3.64462
2.63238
1.60106
0.963109
0.683861
0.555883
0.483569
0.314128
0.194319
0.168618
0.194165
0.173898
0.306331
0.419325
0.283791
0.198456
0.127719
2.78252
1.79903
1.03921
0.679193
0.504638
2.34361
3.0715
4.3546
4.0719
2.64161
1.39876
0.798835
0.543238
0.436856
0.389474
0.270797
0.195895
0.165733
0.194218
0.17398
0.307175
0.424511
0.292362
0.212339
0.160324
0.526221
1.50338
0.719508
0.508
0.740522
1.30714
0.457249
0.809817
2.45968
2.71541
1.60267
0.964527
0.682728
0.569087
0.515468
0.395363
0.259571
0.220064
0.194222
0.174073
0.307661
0.42397
0.284706
0.614022
0.256305
0.869038
0.691769
0.496181
0.511129
0.724969
0.942712
0.824239
0.596841
0.536678
0.605038
0.856756
0.91548
0.898161
0.842287
0.77854
0.511762
0.291116
0.247694
0.194281
0.174053
0.308407
0.432574
0.30602
0.22798
0.410138
0.191627
0.774281
0.53669
0.40514
0.343322
0.0425898
0.24812
0.202752
0.160314
0.25099
0.231152
2.27594
1.31228
0.62941
0.502545
0.323244
0.199338
0.191094
0.194309
0.174071
0.309031
0.438904
0.315059
0.246843
0.210199
0.370816
0.553218
0.416409
0.44568
0.699051
0.169049
1.64199
0.606324
0.679707
0.0518909
0.495113
3.11863
0.946554
0.491173
0.223369
0.217665
0.200361
0.123047
0.194321
0.174077
0.309388
0.442052
0.321551
0.253544
0.205905
0.256517
0.378336
0.474937
0.554783
0.832699
1.4547
0.828145
0.837923
0.302291
0.20023
0.467737
2.54949
1.41742
2.43555
0.762099
0.683389
0.215119
0.0914267
0.19431
0.174121
0.309538
0.443135
0.322874
0.253142
0.204272
0.309225
0.562406
0.696333
0.714054
3.95294
2.95325
1.35564
0.468952
0.587542
0.529711
0.41803
0.399932
0.548918
0.727671
1.60954
1.58888
0.649576
0.170803
0.192714
0.176982
0.2998
0.241149
0.199436
0.169054
0.147549
0.131404
0.140633
0.197465
0.498234
7.05209
2.55617
1.75397
1.43959
1.02529
0.565119
0.338226
0.477174
1.23955
0.833238
0.66421
0.281068
0.197865
0.178437
0.19556
0.17215
0.15179
0.137523
0.122631
0.113855
0.199841
0.172707
0.0812826
0.142048
0.251911
0.315928
2.90254
1.61393
0.981951
0.412874
0.484203
0.76252
2.46023
0.835827
0.767769
0.305108
0.232075
0.534519
0.435039
0.196665
0.17029
0.153728
0.134795
0.126075
0.213709
0.354188
0.335224
0.221005
0.122938
0.185681
0.293832
0.365487
0.560836
0.574536
0.539645
0.435004
0.426405
12.6562
4.08655
2.65057
1.23383
0.98827
0.894698
0.710693
0.195633
0.172142
0.151727
0.137717
0.122775
0.114374
0.186691
0.446031
0.1944
0.0895799
0.159128
0.588795
1.16604
0.379207
0.327372
0.304956
0.270991
0.498922
8.7347
4.83213
1.1908
0.761982
0.664113
0.61406
0.53586
0.195932
0.171618
0.152484
0.136757
0.124423
0.11313
0.104953
0.096389
0.0913922
0.0837238
0.0800799
0.149928
0.140601
0.0664983
0.0666145
0.0677409
0.135736
0.294842
0.556619
0.275785
0.162762
0.177328
0.187895
0.197021
0.20513
0.0369709
0.0413521
0.0446666
0.0487239
0.0609595
0.0687434
0.068159
0.0725847
0.0656443
0.0602252
0.0556854
0.0523394
0.0508026
0.0489908
0.0505007
0.0544822
0.0621265
0.0747492
0.0927153
0.11594
0.142941
0.171959
0.200466
0.224203
0.239418
0.0371624
0.0418274
0.0514465
0.0626972
0.164748
0.425304
0.579806
0.632832
0.350667
0.250455
0.205063
0.185284
0.164589
0.156753
0.170814
0.187465
0.228848
0.291011
0.367284
0.442581
0.509274
0.549387
0.566081
0.659448
0.575496
0.0374647
0.0424362
0.0518311
0.0735495
0.503413
3.77144
2.57837
1.53989
1.04949
0.711374
0.467468
0.338855
0.30362
0.35583
0.451581
0.566666
0.650823
0.693808
0.714013
0.727417
0.650522
0.487986
0.43703
0.0369252
0.048393
0.0577199
0.115723
0.248326
1.51784
0.905909
0.661376
0.587627
6.23507
1.06502
0.491947
0.347345
0.267492
0.2147
0.19078
0.19072
0.20904
0.192809
0.15847
0.151695
0.0378857
0.0439407
0.0545573
0.0806199
0.150093
0.572143
0.455343
0.753485
1.33351
1.20398
1.02012
3.73408
1.45291
0.585729
0.257981
0.137797
0.0967916
0.102816
0.146649
0.156981
0.135443
0.114383
0.0379779
0.0446326
0.0560299
0.0875797
0.432133
2.20951
2.15803
1.35965
2.14313
3.86522
2.17858
1.12104
0.785858
0.465353
0.257388
0.154401
0.109586
0.117007
0.134561
0.119804
0.110978
0.0377823
0.0436772
0.0550194
0.0880543
0.966401
0.285156
1.74874
0.954902
0.94036
1.11468
0.82397
0.484927
0.300428
0.208022
0.160805
0.153612
0.148241
0.122617
0.110759
0.0374621
0.0415146
0.0542728
0.0743605
0.158823
0.220723
0.294613
1.17224
1.76827
0.973589
1.09303
1.23039
0.910141
0.549189
0.298392
0.161543
0.117808
0.132023
0.131672
0.118027
0.0994683
0.0372635
0.0409793
0.0513515
0.0679009
0.0689709
0.0690409
0.0960456
0.992239
0.994576
1.41773
1.33201
0.882911
0.468797
0.231581
0.125619
0.10511
0.125246
0.127535
0.117217
0.104254
0.0371538
0.0409381
0.049621
0.0662815
0.0660247
0.065218
0.0818493
1.06785
3.81527
3.35062
3.04439
3.11824
2.01625
2.52055
3.14509
1.29497
0.70558
0.524372
0.334734
0.212844
0.158096
0.156573
0.161283
0.1497
0.125938
0.0370649
0.0407287
0.0492337
0.0659769
0.11971
1.12897
0.623933
1.03274
0.508992
0.455878
0.392569
0.398392
0.404332
0.379964
0.350718
0.307415
0.264157
0.243366
0.227584
0.200035
0.179776
0.0369484
0.0401378
0.0486328
0.0647581
0.0662314
0.133033
0.919252
0.604625
0.154452
0.389823
1.50745
1.97154
0.979641
0.522291
0.365639
0.265023
0.194773
0.154014
0.0368282
0.0396842
0.0494587
0.0634488
0.0616666
0.0609926
0.0857451
0.627918
0.869871
0.627295
1.66903
2.01133
0.489869
0.612633
1.20219
0.203298
0.450085
0.84377
0.343021
0.217826
0.122497
0.0366825
0.0399042
0.0478022
0.0625721
0.0596174
0.0547585
0.0578576
0.131181
0.213819
0.247201
0.312358
0.888492
1.95087
0.662455
1.2662
1.79464
0.611231
0.448419
4.38222
0.881758
0.665269
0.315954
0.174116
0.0366978
0.0393631
0.0488143
0.0620423
0.0587182
0.0527868
0.0577668
0.141234
0.229158
0.249473
0.287311
4.01817
4.98805
2.03336
0.947237
0.545148
0.388174
0.37435
0.554813
0.950919
1.3291
1.64568
0.606912
0.190572
0.0366253
0.0393783
0.0514946
0.052706
0.0511158
0.0479992
0.0443252
0.048341
0.0640801
0.100799
0.199492
14.3312
1.11669
2.02061
0.814709
0.515342
0.849057
0.412426
0.273192
0.0367892
0.0402141
0.0417049
0.0422289
0.0418941
0.0403168
0.0450079
0.0478902
0.0575769
0.0541772
0.0635378
0.609838
0.256808
1.64452
1.99254
3.97985
2.17376
1.29265
0.837346
0.733688
0.754489
0.546382
0.0368486
0.040234
0.0417044
0.0422557
0.0414459
0.0484171
0.056636
0.789
0.591007
0.302615
0.205015
0.143097
0.587471
5.882
1.84538
1.33074
1.1263
4.2019
6.68924
2.32664
1.62531
1.32648
0.916323
0.0368032
0.0402218
0.0416616
0.0421852
0.0419734
0.0401874
0.0574788
1.83405
0.447718
0.147187
0.136558
0.365178
1.14075
0.315816
0.314219
0.315605
1.31901
5.88579
4.37767
1.36855
1.00366
0.859356
0.608429
0.036804
0.0402096
0.0415911
0.0420301
0.0416083
0.0409167
0.0408462
0.0405357
0.0398826
0.0400644
0.03995
0.0490876
0.0515628
0.0436055
0.0486669
0.0538196
0.0692133
0.147329
1.95751
0.612022
0.293465
0.249303
0.233048
0.219479
0.204737
0.029538
0.0294486
0.0300047
0.0312674
0.0358324
0.0401041
0.0415736
0.0447355
0.0426793
0.0414209
0.0397144
0.0396388
0.0405529
0.0429664
0.0477397
0.0561428
0.069397
0.0878734
0.110956
0.13754
0.16685
0.197881
0.22674
0.247945
0.260258
0.0295411
0.0296014
0.0308361
0.0343795
0.0777434
0.122085
0.15048
0.145908
0.123301
0.110278
0.103277
0.110409
0.123459
0.141585
0.17065
0.216649
0.281694
0.360358
0.442172
0.517312
0.579158
0.625949
0.625621
0.696103
0.600912
0.0296242
0.0297543
0.0309294
0.0357249
0.272566
1.88676
1.07555
0.536986
0.358449
0.311809
0.282386
0.236308
0.189309
0.196649
0.26735
0.36778
0.479124
0.585614
0.669213
0.722584
0.758407
0.783443
0.691138
0.5007
0.439153
0.0296034
0.0296519
0.0310545
0.0352441
0.0654092
1.6104
0.950394
0.412891
0.300038
0.251791
0.217365
0.657571
0.578619
0.382617
0.260736
0.215075
0.191018
0.173224
0.165161
0.163523
0.16404
0.172769
0.152324
0.120889
0.123975
0.0297116
0.0301274
0.0317742
0.0381703
0.0863298
1.02197
1.85901
1.54225
1.58607
1.21433
0.796881
1.46804
1.59259
1.03708
0.542059
0.309246
0.188978
0.111398
0.0696188
0.055137
0.0550803
0.068668
0.0798438
0.0687607
0.068746
0.0297097
0.0303467
0.0326573
0.0464641
0.543757
3.08067
3.20111
2.72814
1.88748
1.48685
0.868466
0.512605
0.314839
0.201894
0.127652
0.0858144
0.0655365
0.0562355
0.0618143
0.0713997
0.0635717
0.062919
0.0296536
0.0300719
0.0322529
0.051273
4.47163
2.1087
1.31527
0.852176
0.598141
0.36488
0.245946
0.193094
0.15303
0.107479
0.0774576
0.0766999
0.0765578
0.0654689
0.0639455
0.0295886
0.029597
0.0313004
0.0371183
0.116117
0.215107
0.338326
2.3114
0.70531
1.32172
1.481
1.01219
0.626378
0.39561
0.226399
0.109983
0.0669502
0.0744646
0.0808025
0.0709809
0.0650545
0.0295997
0.0294075
0.0306177
0.033627
0.0365963
0.0443965
0.146408
1.46409
0.946658
1.65648
1.25379
0.820551
0.592504
0.382563
0.201679
0.0931067
0.0623646
0.075449
0.0831916
0.0701354
0.0671581
0.0295365
0.0293928
0.0302996
0.0327934
0.0344707
0.0389262
0.0699511
1.75797
2.59813
3.91969
3.9971
2.21427
1.67999
1.01969
0.393051
0.244751
0.23529
0.233639
0.169723
0.098796
0.0736952
0.0819225
0.0856729
0.0784312
0.0737148
0.0295251
0.0293501
0.0301936
0.0326264
0.0368638
0.0777424
0.722113
6.41538
4.38603
3.56264
2.95058
1.47617
0.831815
0.503683
0.295659
0.231623
0.226662
0.218446
0.208424
0.166539
0.133499
0.124996
0.120495
0.109837
0.104699
0.029508
0.0292749
0.0300519
0.0321953
0.0342104
0.0430137
0.197963
0.717217
1.84149
2.31493
1.75855
1.74938
1.55326
1.30831
1.24478
1.21319
0.999744
0.45941
0.387148
0.308468
0.257504
0.208428
0.153181
0.11569
0.104678
0.0294875
0.0292011
0.0299443
0.0317064
0.0322519
0.0353404
0.0646182
0.147332
0.333178
0.732434
3.64056
2.78255
2.50909
0.88937
0.528702
0.745761
0.401952
0.342113
2.37865
1.02539
0.579348
0.321843
0.141887
0.0912255
0.076557
0.029467
0.0291586
0.0298304
0.0314161
0.0313921
0.0328587
0.0672929
0.14455
0.151147
0.145532
0.199028
0.295828
0.391709
0.380875
0.330761
0.273664
0.228879
0.192314
0.334161
0.698427
0.494793
0.267654
0.154832
0.106772
0.0888006
0.0294577
0.0291154
0.0297868
0.0312527
0.0309384
0.0320641
0.0701617
0.155554
0.156031
0.111949
0.111078
0.713252
3.37143
2.12516
0.949393
0.510294
0.292254
0.190511
0.162011
0.209283
0.258173
0.236408
0.178912
0.172201
0.139013
0.0294488
0.0291318
0.0299967
0.0301675
0.0299129
0.0294231
0.0327076
0.0457743
0.0747817
0.096301
0.122683
0.924799
2.53384
1.64024
1.52162
1.46319
0.730735
0.428522
0.308197
0.250684
0.247225
0.256382
0.265486
0.324325
0.275257
0.0294605
0.0291151
0.0288006
0.0284711
0.0280271
0.0274539
0.0282509
0.0304506
0.0361845
0.0394266
0.0488157
0.308458
2.03143
3.48592
3.02741
2.05066
1.02536
0.782928
0.764903
0.692754
0.647494
0.577985
0.552108
0.54081
0.456815
0.0294645
0.0291154
0.0287951
0.0284576
0.027986
0.0293591
0.0328528
0.257742
0.280694
0.159073
0.141283
0.117498
0.160221
0.241333
0.332813
0.374211
0.365938
0.461669
2.36332
1.5491
1.1314
0.721463
0.635328
0.599735
0.491376
0.029461
0.0291097
0.0287946
0.0284355
0.0281343
0.0273912
0.0329551
1.3688
0.195702
0.074969
0.0910031
0.104181
0.121735
0.136048
0.0990554
0.112622
0.137479
0.392384
1.53016
0.87925
0.483673
0.455565
0.411802
0.379522
0.330653
0.029459
0.0291102
0.0287767
0.0284358
0.0280501
0.0275725
0.0273468
0.0271724
0.026844
0.0272385
0.0278896
0.0289236
0.0286972
0.0294973
0.0309914
0.0323093
0.0426818
0.071366
0.150963
0.226644
0.155703
0.172382
0.16341
0.170534
0.159068
0.0292645
0.0280444
0.0273532
0.0278071
0.0287853
0.0304991
0.0309556
0.0314085
0.0314892
0.0315656
0.0319261
0.0331548
0.0359438
0.0409966
0.0495103
0.0627104
0.0812625
0.104777
0.132087
0.162354
0.194904
0.228606
0.258284
0.278792
0.289819
0.0292729
0.0281144
0.0277084
0.0283063
0.0331684
0.0450487
0.0527862
0.0566092
0.0595072
0.0625636
0.0669435
0.0775602
0.10038
0.13524
0.181836
0.246827
0.327862
0.415662
0.501436
0.577436
0.636593
0.681771
0.682519
0.736251
0.628582
0.0292992
0.0281686
0.0278556
0.0286498
0.0406288
0.12222
0.146452
0.137575
0.128745
0.118106
0.100254
0.0991579
0.125068
0.177922
0.25833
0.358794
0.470868
0.579553
0.666621
0.727053
0.771721
0.805762
0.70432
0.501583
0.443829
0.0293316
0.0281824
0.0279705
0.0287198
0.0346319
0.0838391
0.111978
0.119111
0.121831
0.118489
0.110143
0.109377
0.1145
0.115115
0.115373
0.119171
0.12379
0.127173
0.132439
0.137404
0.139721
0.14553
0.12182
0.0994278
0.106193
0.0293525
0.0282002
0.028289
0.0301297
0.0452742
0.169822
0.297285
0.373256
0.799656
0.942417
0.777326
0.491882
0.351802
0.248353
0.174604
0.127183
0.0901661
0.0599201
0.0424187
0.035617
0.0341575
0.0361269
0.0378675
0.0368508
0.0403919
0.0293219
0.0282375
0.0287236
0.0334165
0.153886
0.837203
0.774502
2.10139
4.83995
2.54051
2.64329
2.27417
1.30451
0.5407
0.234724
0.144722
0.102061
0.0716452
0.051825
0.0392718
0.0333755
0.033531
0.0349201
0.0332499
0.0343473
0.0293116
0.0281345
0.0285432
0.0340744
0.259513
0.754734
0.672391
2.23576
0.975796
0.724522
0.397043
0.221813
0.164719
0.139666
0.109933
0.0698777
0.0416189
0.0364877
0.0359412
0.0341179
0.0347315
0.0292929
0.0280734
0.0279842
0.0295573
0.0395635
0.0873512
0.253926
4.86757
0.662088
1.19394
0.933651
0.588711
0.387575
0.273648
0.182304
0.0988836
0.0473126
0.038901
0.0390106
0.0365657
0.036423
0.0292826
0.0280596
0.0276741
0.0278661
0.0291025
0.0358204
0.256043
1.65341
0.877022
1.29026
0.806709
0.533456
0.382945
0.272345
0.170357
0.0854581
0.0424507
0.039266
0.0400268
0.0367723
0.0370359
0.0292759
0.0280566
0.0275508
0.0273872
0.0277989
0.0311394
0.0767551
2.45271
3.79942
4.32874
3.12455
2.18154
1.28516
0.531065
0.238379
0.188792
0.173732
0.164305
0.116406
0.0634751
0.0400707
0.0392293
0.0398228
0.0383615
0.039215
0.0292732
0.0280573
0.0274986
0.0272496
0.0278021
0.0317683
0.097879
0.645965
1.04099
1.17501
1.0744
0.78458
0.456888
0.216318
0.129705
0.122438
0.123563
0.12039
0.10438
0.0804542
0.0643233
0.0579501
0.0550886
0.0522258
0.0516214
0.0292687
0.0280524
0.0274382
0.0270748
0.0273324
0.0311244
0.0741423
0.222923
0.661491
1.09704
1.322
0.999713
0.564637
0.237839
0.139752
0.126705
0.143875
0.154835
0.159899
0.159191
0.135728
0.110833
0.0842217
0.0649022
0.0603999
0.0292639
0.0280378
0.0273797
0.0268922
0.026617
0.0295286
0.0740069
0.11796
0.137956
0.187404
0.274957
0.271011
0.216755
0.173404
0.154048
0.14907
0.143408
0.123017
0.151957
0.30196
0.213048
0.119233
0.0780836
0.0589619
0.0534704
0.0292604
0.0280198
0.0273304
0.0267835
0.0262117
0.0292188
0.0836656
0.130251
0.0985316
0.0796679
0.0836226
0.105715
0.136823
0.153776
0.152001
0.14126
0.115145
0.0941298
0.0929734
0.129359
0.136855
0.11182
0.0829862
0.0728045
0.0693492
0.0292587
0.0280005
0.0273046
0.0267225
0.0259598
0.0294138
0.0862725
0.145586
0.109519
0.0653817
0.0552962
0.0790744
0.288599
0.409772
0.369876
0.251781
0.158517
0.103593
0.0862833
0.0965029
0.114984
0.124955
0.143225
0.192065
0.16079
0.0292608
0.0279753
0.0273397
0.0264169
0.0255406
0.0254578
0.0313947
0.0474594
0.0809623
0.0865139
0.0838291
0.107535
0.204003
0.326182
0.360115
0.362088
0.348728
0.314029
0.285963
0.26414
0.268454
0.298941
0.341886
0.339786
0.323001
0.0292691
0.027954
0.026962
0.0258509
0.025164
0.0242212
0.0236344
0.0240209
0.0266264
0.0318896
0.040072
0.0606118
0.0876679
0.108535
0.167668
0.211067
0.17774
0.232224
0.289309
0.289885
0.316016
0.351152
0.371545
0.373949
0.376352
0.0292716
0.0279525
0.0269292
0.0258848
0.0251176
0.0242987
0.024716
0.0313628
0.0382587
0.0403628
0.0427689
0.0458094
0.0492686
0.0556225
0.065289
0.0822012
0.0913423
0.139368
0.21529
0.223048
0.23624
0.278043
0.294361
0.314652
0.308791
0.0292742
0.0279429
0.026944
0.0258388
0.0252008
0.0241274
0.0241597
0.027926
0.0270613
0.0291272
0.0318165
0.0347103
0.0353532
0.0376239
0.0403811
0.0475614
0.0527843
0.0844807
0.158228
0.148604
0.171397
0.184916
0.19307
0.204978
0.200129
0.0292615
0.0279685
0.0269043
0.0259032
0.0250868
0.0242741
0.0236816
0.0231969
0.0227015
0.0223726
0.022468
0.0228904
0.0231568
0.0232173
0.0236967
0.0246655
0.0265858
0.0312912
0.0392815
0.0522731
0.0707177
0.0930375
0.11117
0.12495
0.125476
0.0292396
0.0280182
0.0268625
0.0266898
0.0268899
0.0274842
0.0274828
0.0273585
0.0273147
0.0274773
0.0281995
0.0301575
0.0342377
0.0414687
0.0531131
0.0700857
0.0924591
0.119272
0.149463
0.182322
0.217428
0.253039
0.282988
0.303525
0.314108
0.0292775
0.0279976
0.0272399
0.0269624
0.0279683
0.0305468
0.0325527
0.0361562
0.0408681
0.0451548
0.0513568
0.0659155
0.0956851
0.139746
0.199282
0.27609
0.364576
0.455676
0.541221
0.615338
0.670648
0.713324
0.713498
0.757139
0.646756
0.0292996
0.0280395
0.0273332
0.0271627
0.0292745
0.0365857
0.0479441
0.0647855
0.0693899
0.0642996
0.0626682
0.0814565
0.123555
0.185805
0.266829
0.36588
0.476446
0.58333
0.669862
0.731356
0.775858
0.808728
0.705139
0.499252
0.444891
0.0293203
0.0280763
0.0274157
0.0273515
0.0291823
0.036002
0.0481937
0.0640685
0.0707502
0.0720347
0.0715135
0.068095
0.0666412
0.0665601
0.0718051
0.0817159
0.0935876
0.105319
0.115606
0.122849
0.127855
0.134255
0.108014
0.091565
0.0999884
0.029357
0.0280433
0.0275349
0.0279633
0.0323334
0.0489489
0.0805874
0.154713
0.482683
0.699843
0.590942
0.345363
0.195673
0.121676
0.0844875
0.0648767
0.0508173
0.0391347
0.0315666
0.027753
0.026372
0.0263334
0.0261821
0.0271287
0.029646
0.0293702
0.0279659
0.0278077
0.0291485
0.042358
0.111236
0.218177
2.83389
9.17461
3.19274
3.38942
2.25465
0.92834
0.323155
0.15231
0.0937795
0.0677976
0.0515558
0.0392615
0.0298214
0.0251764
0.0241471
0.0239193
0.0232572
0.0238327
0.0293286
0.0279698
0.0276832
0.0289023
0.0403046
0.0964004
0.260094
3.6523
0.748566
0.519589
0.269771
0.177756
0.135965
0.114391
0.0918881
0.05962
0.0321121
0.0252511
0.0242002
0.0234567
0.0237756
0.0292915
0.0279778
0.0273312
0.0275245
0.0298353
0.0436442
0.256141
8.18812
0.46866
1.16765
0.770349
0.330788
0.22024
0.172635
0.134398
0.0860473
0.0389639
0.0266101
0.0249804
0.0240958
0.0243958
0.0292831
0.0279613
0.0271911
0.0267117
0.0271496
0.033438
0.37344
1.47777
1.07737
1.23406
0.459547
0.308832
0.235123
0.175623
0.122986
0.070118
0.0333874
0.0262793
0.025127
0.0241748
0.0246209
0.0292808
0.0279582
0.0271364
0.0264197
0.0263256
0.0294341
0.0884065
2.76676
4.48918
3.83182
2.57281
1.70869
0.750795
0.313757
0.195391
0.168326
0.15019
0.126341
0.0907686
0.0505199
0.0293215
0.025879
0.0252393
0.0248452
0.0254078
0.029277
0.0279627
0.0271104
0.0263069
0.0260835
0.0287551
0.0675818
0.158069
0.33114
0.507123
0.542806
0.425686
0.258321
0.140381
0.100469
0.0874733
0.077469
0.0671786
0.0543783
0.0419858
0.0353555
0.0321545
0.0302389
0.0294734
0.0297905
0.0292709
0.0279658
0.0270767
0.0262167
0.0258205
0.0289075
0.0730222
0.1127
0.16221
0.242612
0.275957
0.22597
0.140996
0.0902329
0.0750086
0.0727568
0.0720427
0.0692533
0.0659456
0.0638058
0.0578811
0.0503918
0.0414929
0.0353664
0.034715
0.0292659
0.027962
0.0270309
0.0261276
0.025476
0.0288877
0.0815512
0.106674
0.0907413
0.091742
0.0991291
0.0974848
0.0866604
0.080161
0.0767724
0.0744109
0.0688748
0.0613701
0.0620221
0.0767567
0.0717296
0.0568235
0.0430237
0.0365
0.0363082
0.0292654
0.0279474
0.0269905
0.0260734
0.0252814
0.0295497
0.0933058
0.122624
0.0818062
0.056011
0.049198
0.0496942
0.0602855
0.0712461
0.0752673
0.0701205
0.0577574
0.0488302
0.0481605
0.0561562
0.0593287
0.0525137
0.0465846
0.0622158
0.063611
0.0292637
0.0279316
0.0269759
0.0260314
0.0251079
0.0303209
0.0965545
0.142475
0.0974421
0.0555029
0.039401
0.0412397
0.0659265
0.11067
0.122648
0.105224
0.079562
0.0642019
0.0629263
0.0739308
0.0928153
0.113674
0.165938
0.236293
0.203025
0.0292631
0.0279128
0.0270032
0.0258305
0.0246488
0.0248013
0.0321568
0.0497611
0.0835073
0.083991
0.0735924
0.064353
0.0697249
0.104489
0.154762
0.191225
0.215083
0.235556
0.256876
0.283862
0.31662
0.358184
0.393843
0.377119
0.365783
0.0292775
0.0278709
0.0267348
0.0254333
0.0245392
0.0235296
0.0225344
0.0227764
0.0251671
0.0305144
0.03649
0.0468393
0.0570933
0.0647352
0.0722013
0.0842747
0.102546
0.12416
0.153174
0.193332
0.232815
0.279634
0.317046
0.343936
0.3484
0.0292825
0.0278691
0.0266856
0.0254846
0.0244853
0.0235268
0.0228264
0.0226147
0.0233041
0.0243131
0.0257562
0.0281035
0.0312508
0.037688
0.0436805
0.0541131
0.0627289
0.0775766
0.0899994
0.11527
0.134331
0.164239
0.182246
0.217079
0.238301
0.0292816
0.0278676
0.026692
0.0254526
0.0245393
0.0234439
0.022857
0.0220756
0.0217825
0.0219516
0.0224761
0.0233335
0.0239766
0.0255747
0.0269173
0.030653
0.0357053
0.0460757
0.0581584
0.0777709
0.091432
0.112454
0.123782
0.146779
0.15333
0.0292711
0.0278871
0.0266643
0.0254963
0.024479
0.0235145
0.0227244
0.0219994
0.0213841
0.0209205
0.0205294
0.0205532
0.02054
0.020626
0.0209246
0.0216517
0.023099
0.0257684
0.030005
0.039646
0.0512878
0.069805
0.0832285
0.105769
0.110083
0.0292581
0.0279635
0.026894
0.0262617
0.0261849
0.0261964
0.026066
0.0257072
0.0254778
0.0257093
0.0266722
0.0291995
0.0344102
0.0435986
0.0579392
0.0779433
0.103093
0.132189
0.164275
0.198888
0.235773
0.272652
0.303107
0.32346
0.33371
0.0292789
0.0279761
0.0271869
0.0265512
0.026727
0.0273723
0.027927
0.0303501
0.034302
0.0385971
0.0459167
0.0629267
0.0966128
0.148209
0.217568
0.302723
0.395353
0.486708
0.570314
0.64161
0.693259
0.73538
0.7351
0.771338
0.660842
0.0292961
0.028011
0.0272572
0.0267544
0.0271676
0.0284328
0.0341418
0.048641
0.0529752
0.0490381
0.0525837
0.0772622
0.126023
0.195898
0.282032
0.382814
0.490579
0.591792
0.674935
0.734475
0.777416
0.808376
0.703675
0.49834
0.446381
0.0293093
0.0280474
0.0273243
0.026934
0.0274601
0.0292617
0.0365209
0.0491845
0.0519275
0.050553
0.0498634
0.0500458
0.0520886
0.0542247
0.0594495
0.0696539
0.082838
0.0961306
0.107528
0.115935
0.122716
0.129388
0.10561
0.0867819
0.0985863
0.0293209
0.0280602
0.0273636
0.0272225
0.0285108
0.0321903
0.0439985
0.0852757
0.254704
0.378484
0.319018
0.20276
0.126971
0.0842932
0.0592543
0.0464177
0.0386126
0.0324823
0.0280654
0.0255161
0.0244275
0.0241477
0.023758
0.0251284
0.0273994
0.029324
0.0280369
0.0273907
0.027607
0.0302809
0.0385651
0.0847788
2.82328
7.40133
5.54976
2.46166
1.00576
0.436643
0.211098
0.114383
0.0722178
0.0535082
0.0420784
0.0329867
0.0261619
0.0229744
0.0220021
0.0216068
0.0212791
0.0213406
0.0293033
0.0279978
0.0273371
0.0274546
0.029433
0.037492
0.169173
6.23042
0.922885
0.401442
0.187945
0.124937
0.0999135
0.0840011
0.0676487
0.0445611
0.0270556
0.0225839
0.0217222
0.0213121
0.0210454
0.0292874
0.0279652
0.0272161
0.0269013
0.0276506
0.0342774
0.25326
16.1248
2.07695
0.579338
0.216705
0.166628
0.137471
0.109931
0.0862941
0.0565518
0.0301613
0.0231022
0.021882
0.0214175
0.0212335
0.0292825
0.0279478
0.0271285
0.0264678
0.0266056
0.0322412
0.371021
0.814276
2.05218
0.360014
0.224902
0.190867
0.148046
0.10995
0.0785282
0.0466699
0.0271698
0.0227848
0.0218632
0.0214131
0.0213235
0.0292802
0.0279469
0.0270888
0.0262536
0.0260004
0.0289324
0.0880454
2.20588
3.19146
2.64481
1.8206
1.22065
0.45673
0.218053
0.16419
0.137274
0.111758
0.0879047
0.0626879
0.0368624
0.0249696
0.0225173
0.0219024
0.0216635
0.0216385
0.0292754
0.0279533
0.027067
0.0261518
0.0257031
0.0280491
0.0638535
0.112292
0.201487
0.301585
0.307933
0.230779
0.146385
0.0972267
0.0798055
0.0689008
0.0577451
0.0468299
0.036356
0.0288833
0.0256068
0.0241004
0.0232124
0.0231011
0.023127
0.0292683
0.0279597
0.0270347
0.0260882
0.0254942
0.0283813
0.0706052
0.0930465
0.084763
0.087975
0.0952533
0.085864
0.0683468
0.0566768
0.0517671
0.0479179
0.0427271
0.0375804
0.034
0.0323073
0.030731
0.0286597
0.0262778
0.0252263
0.0254573
0.0292651
0.0279581
0.0269896
0.0260382
0.0253196
0.0290383
0.0835144
0.102872
0.0743417
0.0576705
0.0515619
0.0490389
0.0474133
0.0475538
0.0467807
0.0442192
0.0395712
0.0351213
0.0334983
0.0343525
0.0333958
0.0305857
0.0273079
0.0283768
0.0295954
0.0292678
0.0279416
0.0269542
0.0260034
0.0252156
0.0303265
0.0978614
0.120595
0.0793361
0.0499695
0.037168
0.0354993
0.0386589
0.0431402
0.0453015
0.0424954
0.0370994
0.0328975
0.0314396
0.0321801
0.0329804
0.032358
0.0371047
0.0662258
0.0693255
0.0292656
0.0279283
0.0269454
0.0259644
0.0250528
0.0316268
0.103153
0.144066
0.0956753
0.054438
0.0362005
0.0339247
0.0394558
0.0502686
0.0579058
0.0566041
0.0529978
0.0545671
0.0640104
0.0819411
0.107248
0.136337
0.209176
0.287346
0.246888
0.0292607
0.0279156
0.0269804
0.0257783
0.0245057
0.0249082
0.0332385
0.051968
0.0861466
0.0862516
0.073004
0.0557066
0.0517428
0.0612757
0.0880796
0.120893
0.157544
0.198372
0.245226
0.296733
0.351388
0.406369
0.42518
0.423158
0.40539
0.0292708
0.0278816
0.0267085
0.0253807
0.0244427
0.0233753
0.0222992
0.0226221
0.0253623
0.0306576
0.0367407
0.0476688
0.0532552
0.0567355
0.0610955
0.0698491
0.0839146
0.10135
0.12597
0.164918
0.206076
0.254806
0.29422
0.335853
0.347244
0.0292772
0.0278807
0.026646
0.025459
0.024366
0.0233503
0.0225854
0.0216906
0.0213804
0.0218236
0.0229388
0.0249593
0.0281114
0.0342257
0.0399808
0.0478148
0.0558691
0.0661745
0.0765269
0.0930867
0.108829
0.132689
0.151307
0.180725
0.207812
0.0292747
0.0278827
0.0266482
0.0254374
0.0243885
0.0233631
0.0224972
0.0217257
0.0210802
0.0204893
0.0205224
0.0208138
0.0212496
0.0221489
0.0235568
0.0263525
0.0316446
0.0400597
0.0490278
0.0624036
0.073915
0.0913875
0.103809
0.123053
0.133806
0.0292695
0.027891
0.0266378
0.0254523
0.0243746
0.0233706
0.0225039
0.021686
0.0210153
0.0205241
0.0200554
0.0197225
0.0196979
0.0197687
0.0200577
0.0207442
0.0221683
0.0247455
0.0293332
0.0389065
0.0485339
0.0652861
0.0770429
0.0985581
0.104847
0.0292692
0.0279353
0.0268843
0.0261401
0.0257959
0.0256299
0.0253456
0.0248478
0.0248336
0.0252981
0.0267568
0.0301455
0.0367497
0.0479475
0.0648103
0.0874387
0.114834
0.14568
0.179094
0.214678
0.252377
0.289902
0.320956
0.341585
0.351214
0.0292758
0.0279637
0.0271487
0.0264156
0.0262047
0.0262551
0.0265161
0.0285568
0.0325975
0.0378882
0.0469093
0.0666426
0.104463
0.162401
0.239805
0.331676
0.427594
0.518862
0.60074
0.669521
0.718092
0.759951
0.764243
0.796441
0.679007
0.0292901
0.0279886
0.0272155
0.0265879
0.0264243
0.0265815
0.0310768
0.0453543
0.0503294
0.0478448
0.0530267
0.0794016
0.131259
0.207446
0.301124
0.406298
0.512052
0.607911
0.686383
0.742838
0.784031
0.813095
0.70841
0.50535
0.453301
0.0293004
0.028017
0.0272711
0.0267139
0.0266687
0.0272159
0.0331961
0.0449136
0.0460577
0.0420441
0.0411817
0.0428046
0.0474948
0.0521185
0.058793
0.0694813
0.0825896
0.0952508
0.106092
0.114704
0.121978
0.128786
0.106331
0.0903709
0.101772
0.0293041
0.0280299
0.0273077
0.0268602
0.0271072
0.0282466
0.0356488
0.0583054
0.105766
0.151997
0.142899
0.109561
0.0837193
0.064424
0.0502605
0.0419093
0.0361554
0.0315408
0.0281059
0.0260796
0.0251582
0.0247685
0.0246017
0.0269709
0.0292213
0.0293004
0.0280148
0.0273163
0.0270203
0.0276256
0.0297336
0.0462006
0.592499
2.55297
1.75241
0.964744
0.489175
0.244563
0.135701
0.08332
0.0588029
0.0457335
0.0366305
0.0296883
0.0252427
0.023323
0.0226002
0.0224674
0.0229682
0.0227943
0.0292907
0.02798
0.0272571
0.0269182
0.0274426
0.0304832
0.090732
5.52195
12.1504
6.40455
2.94746
1.33345
0.545238
0.225746
0.125762
0.0918463
0.073116
0.0587103
0.045041
0.0318806
0.0248774
0.0228652
0.0225244
0.0229303
0.0224113
0.0292824
0.0279495
0.0271652
0.0266194
0.0268949
0.0312244
0.129711
8.08479
13.0864
5.82472
2.68321
1.26635
0.560703
0.238061
0.152028
0.122344
0.0936521
0.0698812
0.0513686
0.0351294
0.0257865
0.0230493
0.0225683
0.0229599
0.0224575
0.0292794
0.0279364
0.0270991
0.026368
0.0263346
0.0303523
0.137685
9.84511
7.62417
3.655
1.81183
0.901105
0.416784
0.21826
0.164061
0.131652
0.0966502
0.0690314
0.0480893
0.0320756
0.0248358
0.0228901
0.0225344
0.0229568
0.0224893
0.0292756
0.0279378
0.0270691
0.0261978
0.0258534
0.0282987
0.0704636
0.620795
1.38222
1.18031
0.760253
0.413943
0.22265
0.147958
0.12269
0.100885
0.0782542
0.0586441
0.0413483
0.0287973
0.0240087
0.0227251
0.0225211
0.0230196
0.0226341
0.0292706
0.0279472
0.0270488
0.0261071
0.0255703
0.0276138
0.0594599
0.092322
0.119729
0.155904
0.155252
0.12157
0.0905418
0.0745273
0.0668487
0.0580841
0.0479536
0.0382363
0.0302489
0.0256516
0.0238171
0.0230022
0.0228092
0.0234488