/*--------------------------------*- C++ -*----------------------------------*\
  =========                 |
  \\      /  F ield         | OpenFOAM: The Open Source CFD Toolbox
   \\    /   O peration     | Website:  https://openfoam.org
    \\  /    A nd           | Version:  6
     \\/     M anipulation  |
\*---------------------------------------------------------------------------*/
FoamFile
{
    version     2.0;
    format      ascii;
    class       volScalarField;
    location    "45";
    object      k;
}
// * * * * * * * * * * * * * * * * * * * * * * * * * * * * * * * * * * * * * //

dimensions      [0 2 -2 0 0 0 0];

internalField   nonuniform List<scalar> 
230684
(
1.42736
1.3147
1.20828
1.13584
1.04537
0.955718
0.891679
0.838281
0.815316
0.804593
0.795609
0.789702
0.791489
0.801719
0.820835
0.854049
0.908257
0.991872
1.10596
1.25886
1.44117
1.6482
1.87759
2.0589
2.18837
1.41985
1.32729
1.20162
1.03404
0.866921
0.811766
0.771634
1.12671
0.942865
0.82816
0.765054
0.757177
0.829211
0.981043
1.10539
1.23531
1.43152
1.71401
2.04678
2.35984
2.65502
2.78459
2.80196
4.36061
3.87372
1.42231
1.322
1.2156
0.949675
0.816524
1.59333
1.16791
1.47984
1.29109
0.976003
0.902136
0.888167
0.893609
0.887372
0.943106
1.11228
1.42795
1.8544
2.19427
2.32863
2.36931
2.37255
3.17981
3.50735
3.05829
1.44672
1.28391
1.09538
0.865556
0.637974
1.68522
1.26816
1.47248
1.17225
1.58335
1.66462
2.41436
1.24469
0.920923
0.633115
0.820235
0.923184
0.984197
0.987538
0.974602
0.995033
1.05368
1.42788
1.76099
1.59385
1.42087
1.32438
1.20016
0.907806
0.705295
0.72976
0.834425
1.06679
1.13548
0.921347
1.51675
2.89252
1.39138
0.853157
0.705013
0.686253
1.05974
1.0903
0.971419
0.882333
0.883795
0.936454
1.30662
1.52897
1.36408
1.42158
1.32339
1.20094
0.860382
0.481992
0.902474
0.553944
0.633193
2.12424
2.45265
2.05189
2.39796
1.83035
0.932397
0.446875
0.480664
0.749613
0.713044
0.640171
0.591754
0.590911
0.69516
1.17069
1.48605
1.33347
1.42205
1.32313
1.20241
0.86085
1.09616
0.855168
0.389265
0.507356
0.50008
0.391354
0.303378
0.499041
0.426043
0.785297
0.502294
1.29081
1.55063
1.50787
1.32744
1.16472
1.04026
0.983624
1.30865
1.49384
1.36952
1.42274
1.32209
1.21098
0.921006
0.667269
0.533068
0.361413
2.14076
1.58613
1.07118
0.891922
0.705189
1.1738
3.02519
3.96434
4.0093
3.30083
2.40187
1.7034
1.33365
1.14852
1.0404
1.22372
1.40991
1.26598
1.42272
1.32201
1.21502
0.943243
0.726366
0.572093
0.426811
2.44786
1.83617
1.2986
0.983466
0.794837
2.81467
3.5555
4.47199
4.34501
3.32695
2.20926
1.51115
1.15257
0.981801
0.900974
1.10261
1.40169
1.2555
1.4227
1.32205
1.21643
0.950067
0.737509
0.594283
0.491549
0.647155
2.08795
1.26144
0.950556
0.940933
1.89065
0.910773
1.4848
3.0982
3.38292
2.39976
1.68794
1.31375
1.1335
1.06658
1.39321
1.71949
1.49821
1.42258
1.32241
1.21747
0.948241
0.686123
0.552817
0.362558
1.07127
0.925907
0.752504
0.738712
0.834437
0.876358
1.38222
1.13015
1.06895
1.16339
1.46002
1.55516
1.54467
1.48023
1.40508
1.70143
1.81609
1.66954
1.42284
1.32222
1.21956
0.961784
0.75426
0.603003
0.573445
0.528435
0.898971
0.787905
0.638031
0.602353
0.138054
0.479635
0.445001
0.361777
0.423511
0.602345
1.89664
1.40026
1.18842
1.05124
1.26249
1.44853
1.38556
1.42292
1.32222
1.22133
0.971904
0.779051
0.658283
0.58978
0.836249
0.77961
0.620004
0.613473
0.727224
0.477473
1.13987
0.586531
0.816742
0.118545
0.990674
2.18364
0.983024
0.599448
0.604653
0.924852
0.893016
1.03632
1.42286
1.32231
1.22223
0.976882
0.790203
0.674202
0.591941
0.641247
0.836263
0.964489
1.06278
1.34451
2.03291
1.33951
1.2735
0.362476
0.549032
0.964964
2.09248
1.93553
1.89386
0.895316
0.757266
0.580913
0.858553
1.42276
1.32233
1.2226
0.978459
0.792506
0.673856
0.58286
0.715053
1.08301
1.27637
1.29499
3.53408
1.88851
1.09856
0.865087
1.17168
1.1229
0.944822
0.853837
1.02141
1.25606
1.29401
1.28527
1.23952
1.28865
1.41495
1.3363
1.19727
1.03512
0.911988
0.816712
0.743934
0.687499
0.700712
0.837319
0.948407
2.82565
1.70373
1.15878
1.70675
1.3854
0.864605
1.29831
0.972567
1.23252
0.925935
0.779145
0.675166
1.40567
1.30812
1.4286
1.31209
1.2065
1.12928
1.04652
0.995198
0.912747
0.815818
0.792919
0.723632
0.634533
0.675886
1.89731
1.10857
0.841463
0.745214
0.774247
1.31502
1.83315
1.44316
0.855994
0.722973
1.05546
2.81133
2.41258
1.43389
1.30247
1.21641
1.11425
1.06519
0.953935
0.837015
0.770228
0.977565
1.04875
0.864621
0.706216
0.801179
0.976873
1.00306
0.89543
0.894441
0.878177
6.14749
4.09482
1.90119
4.76632
4.10521
3.86837
3.2882
1.42883
1.31179
1.2058
1.13005
1.04665
0.9985
0.89226
0.9222
0.88966
0.849696
0.774395
1.1411
1.22517
1.3455
1.20903
1.15647
1.04921
0.936369
4.8385
4.60564
2.90506
3.42543
3.13212
3.02012
2.68773
1.43033
1.30894
1.20994
1.1247
1.0561
0.990975
0.942642
0.890867
0.859871
0.815151
0.7937
0.756272
0.724375
0.695702
0.692756
0.700735
0.689202
0.715201
1.07095
1.08171
1.19516
1.267
1.31922
1.36307
1.3998
1.47506
1.42688
1.36581
1.33812
1.3281
1.2993
1.24461
1.24233
1.19287
1.15343
1.10281
1.08651
1.10489
1.15239
1.23014
1.36011
1.56909
1.89553
2.2814
2.75745
3.26045
3.76996
4.37842
4.60003
4.6656
1.47493
1.4274
1.37463
1.31411
1.6319
1.41015
0.989039
1.5612
1.39336
1.36499
1.46171
1.75916
2.07704
2.31259
2.59004
3.02076
3.65094
4.4376
5.23873
5.91211
6.42738
6.69181
6.73852
7.69419
6.88224
1.47488
1.42954
1.37084
1.26834
2.82922
8.02947
7.01914
5.59161
4.78538
3.76902
2.82609
2.64715
3.20836
4.06925
5.16655
6.25924
6.96147
7.24547
7.34752
7.42867
7.05666
6.07448
5.45497
1.47748
1.42711
1.33653
1.34562
1.64223
3.36365
3.0145
3.18848
3.56455
7.22718
3.453
3.00676
2.9641
3.00231
2.91213
2.84938
2.85799
3.0007
2.89309
2.58456
2.49983
1.47606
1.42848
1.36605
1.25346
1.42921
2.10319
1.7256
2.53314
4.54612
5.43058
5.83142
6.10113
4.40684
2.8809
2.10861
1.74992
1.58314
1.68771
2.02016
2.13211
1.94514
1.81813
1.47613
1.42639
1.38298
1.33672
1.52766
5.5165
7.18394
6.51079
6.04194
6.24304
4.60406
3.48224
3.31055
2.59707
2.00599
1.59602
1.44984
1.74799
2.04765
1.99904
1.80615
1.47595
1.42503
1.38182
1.36374
2.54912
0.623144
2.75927
2.99741
3.40605
4.09067
3.64944
2.94238
2.43438
2.16292
2.04229
2.19522
2.19211
2.02541
1.83057
1.47442
1.42751
1.36688
1.26831
1.40184
1.21945
1.24693
1.31032
6.19708
5.89852
6.07654
6.68028
5.811
4.2595
2.91513
2.13799
1.93505
2.02815
2.0245
1.8552
1.74906
1.47415
1.42773
1.36338
1.24842
1.14108
1.03499
1.06693
5.80084
5.7216
6.81143
7.17916
6.04435
4.12973
2.65134
1.92794
1.80885
1.92648
1.99057
1.94996
1.74907
1.47433
1.42777
1.36323
1.24681
1.13879
1.03266
0.99188
4.60539
6.21819
7.32327
7.14368
3.0923
4.57395
6.8649
8.24963
5.46605
4.97316
4.37203
3.31881
2.52771
2.19403
2.16587
2.25688
2.22175
1.99915
1.47449
1.42797
1.36438
1.25056
1.48372
1.95225
1.8739
1.47027
1.50082
2.13472
2.15196
2.40213
2.99504
3.41277
3.30209
3.0872
2.86751
2.76291
2.66386
2.40425
2.3048
1.47445
1.42851
1.36463
1.25405
1.17347
1.24415
1.87414
1.5882
0.370041
0.833991
3.72391
4.26951
2.71499
2.34617
2.27765
2.05939
1.83646
1.74025
1.47436
1.4286
1.36407
1.25562
1.16466
1.11042
1.2072
3.54755
1.60977
1.70053
3.81182
2.51687
1.18013
1.34496
4.12977
0.297211
1.03941
2.33726
1.77637
1.52832
1.32546
1.47435
1.42826
1.36466
1.25654
1.16637
1.09162
1.32768
2.45263
2.88201
2.80808
2.57954
3.39722
2.19406
1.62296
2.4514
1.82105
2.16117
2.2429
6.72808
3.02995
1.76215
1.5874
1.41481
1.47415
1.4281
1.36385
1.25668
1.16754
1.08807
1.41797
2.64263
3.36225
3.36047
3.37205
11.7961
6.55577
4.54859
3.79214
2.81946
2.36969
2.17213
2.2281
2.54126
2.28625
3.70809
2.28384
1.75916
1.47309
1.42884
1.36435
1.27967
1.19848
1.12533
1.07458
1.18851
1.5792
2.25931
3.02581
7.51237
2.65958
5.81376
2.90428
2.55766
1.86464
3.26374
2.67898
1.47766
1.42147
1.36575
1.30431
1.24962
1.18911
1.12219
1.07215
1.13139
1.1343
1.341
3.56673
0.516704
1.21788
5.23994
5.45663
5.50406
4.57299
4.02468
4.47779
5.24472
4.68564
1.47817
1.4215
1.36386
1.30613
1.24408
1.18544
1.11375
2.42839
2.05573
1.57725
1.24618
1.23968
2.96119
4.21354
2.66402
2.17462
3.01833
7.91272
10.4713
8.23157
7.07321
6.64987
5.70622
1.47793
1.42125
1.36502
1.30334
1.2496
1.18933
1.20659
2.43837
1.53282
1.10511
1.02477
1.67246
2.85865
1.89796
2.04057
2.10616
4.69598
9.18618
9.01974
5.14723
4.66852
4.48014
3.96073
1.4775
1.4222
1.36391
1.30575
1.24858
1.19319
1.14608
1.10026
1.05649
1.00964
0.982828
0.944055
0.885024
0.885413
0.861447
0.855257
0.93396
1.32184
2.8899
2.46452
2.43179
2.40466
2.4377
2.52019
2.43281
1.47966
1.44636
1.41069
1.42033
1.43279
1.45267
1.43968
1.4626
1.42688
1.39273
1.36836
1.37454
1.40726
1.47544
1.58722
1.763
2.0191
2.35921
2.77092
3.24629
3.79488
4.44319
5.38788
5.81763
5.92557
1.48001
1.44844
1.41548
1.43203
1.73394
1.81603
1.78242
1.83472
1.79278
1.8308
1.9457
2.16906
2.4902
2.88101
3.39751
4.10852
5.00148
5.97475
6.89755
7.66833
8.25662
8.58235
8.63834
9.34235
8.39861
1.48153
1.44854
1.42163
1.42609
2.56689
5.30006
4.07546
3.14813
2.91474
2.87021
2.88117
2.84162
2.86896
3.34054
4.32034
5.46926
6.69172
7.778
8.54105
8.98363
9.20411
9.36076
8.63255
7.05862
6.49792
1.48283
1.44886
1.42684
1.41119
1.74152
4.72387
3.34612
2.73913
2.64112
2.73825
2.8181
4.11198
3.7386
3.22123
3.0172
2.95575
3.09305
3.2769
3.30781
3.30238
3.30074
3.34583
3.04049
2.63493
2.71278
1.48495
1.44436
1.43332
1.45478
1.92281
3.36477
4.30819
4.71435
7.17514
6.80032
5.7935
7.4355
6.37013
5.06298
3.79659
2.93089
2.3243
1.97724
1.75277
1.59338
1.57433
1.70736
1.81036
1.73363
1.71032
1.48357
1.44661
1.45592
1.61468
3.94255
8.6559
11.6039
11.2792
9.38714
7.84323
5.34507
3.89924
3.02219
2.43458
2.04054
1.76649
1.57624
1.52281
1.65192
1.77342
1.72107
1.66282
1.48404
1.44176
1.45025
1.64868
9.38589
2.70001
4.24684
4.17567
3.89638
3.3067
2.87582
2.60276
2.26898
1.94689
1.81963
1.86263
1.86014
1.75479
1.68797
1.4819
1.44374
1.42673
1.45219
1.8297
1.9662
1.99214
2.08381
4.8208
6.26172
6.69342
5.79317
4.58468
3.48201
2.48946
1.84338
1.69786
1.81356
1.85629
1.74743
1.68403
1.48097
1.44456
1.41658
1.38793
1.37476
1.41831
2.55349
1.97907
5.67075
7.50984
6.11199
5.10876
4.48372
3.42403
2.32355
1.71023
1.62688
1.79065
1.85904
1.77252
1.68861
1.48099
1.44459
1.41435
1.37666
1.34435
1.3435
1.79085
8.59552
7.89126
9.71137
8.4775
4.7207
5.05977
4.24686
3.00951
3.17102
3.21177
3.11932
2.50863
1.95473
1.80033
1.88553
1.92125
1.8623
1.79796
1.48106
1.44472
1.41367
1.37759
1.39627
1.51764
3.74665
3.31692
2.62996
2.39374
2.31594
2.26288
2.25712
2.08598
2.12228
2.36549
2.6659
2.73127
2.63395
2.37136
2.18909
2.17638
2.16085
2.04696
2.04086
1.48104
1.44461
1.41307
1.37514
1.36469
1.42526
2.17889
2.64806
3.07267
1.93749
1.48832
1.42765
1.3089
1.15459
1.11287
1.09257
1.29134
2.21411
2.54922
2.53968
2.44131
2.16807
1.96507
1.82505
1.84567
1.48097
1.44418
1.412
1.37079
1.33512
1.36834
1.97433
2.98621
3.16459
3.85876
2.25976
2.87072
4.70781
3.27284
2.93047
2.6696
1.64565
1.85671
6.39773
3.40198
2.70919
2.09317
1.63739
1.54205
1.4758
1.48088
1.4436
1.4111
1.36891
1.32563
1.34297
2.0812
3.20773
3.20013
2.69818
2.44237
2.31649
2.53832
2.64649
2.60274
2.51307
2.49621
2.23882
2.30496
2.5077
2.18299
1.83441
1.72361
1.72698
1.61597
1.48071
1.44315
1.41048
1.36798
1.32132
1.34763
2.13114
3.38731
3.46573
2.78809
2.59682
6.07067
7.50493
6.55549
5.02722
3.8511
2.92726
2.42705
2.22273
2.45978
2.51829
2.23108
2.36419
2.91179
2.61131
1.48024
1.44332
1.4102
1.36597
1.32173
1.27579
1.33536
1.57487
2.22419
2.65958
2.92647
5.13765
6.5269
5.69814
5.84706
5.87859
4.1805
3.58215
3.31717
3.02128
3.17529
3.41859
3.74994
4.57794
4.36906
1.48196
1.44051
1.40509
1.35773
1.32443
1.27603
1.22937
1.22242
1.31834
1.36624
1.62074
3.24389
5.93052
8.3285
8.07296
6.76653
4.86881
4.44227
4.72132
4.95568
5.14017
5.34479
5.50287
5.45459
5.40652
1.48205
1.4407
1.40366
1.35867
1.32255
1.27771
1.27478
1.96198
1.93427
1.65303
1.53282
1.60747
2.11001
2.8642
2.97995
3.14413
3.25299
3.53462
6.82414
6.27279
5.86441
5.31673
4.92117
5.09949
5.02489
1.48215
1.44032
1.40399
1.35774
1.32392
1.27456
1.3063
2.89493
1.61769
1.307
1.29552
1.24728
1.314
1.62814
1.5954
1.69885
2.0574
2.8022
5.20439
4.54052
3.96837
3.80146
3.86479
3.77827
3.78613
1.48144
1.44172
1.40212
1.3606
1.32063
1.27934
1.24459
1.21423
1.17516
1.1513
1.12781
1.11062
1.0876
1.04927
1.0438
1.04401
1.09633
1.27223
2.0573
2.98523
2.8476
2.85043
3.00492
3.11674
3.07292
1.47993
1.44807
1.4193
1.42926
1.4579
1.49619
1.49473
1.48104
1.46744
1.45748
1.46211
1.49175
1.55535
1.66318
1.83248
2.07836
2.40755
2.81191
3.27596
3.8019
4.41838
5.2133
6.18665
6.72845
6.75762
1.48034
1.45013
1.42492
1.43935
1.54872
1.72291
1.76086
1.80154
1.85969
1.93097
2.05964
2.31573
2.72698
3.27338
3.97354
4.86627
5.89726
6.94416
7.89782
8.70081
9.3402
9.75542
9.76342
10.2133
9.25878
1.48182
1.45073
1.42947
1.43899
1.70074
2.46962
2.54389
2.57846
2.5667
2.5017
2.42393
2.63914
3.10404
3.84804
4.85429
6.02159
7.25892
8.35372
9.15368
9.66208
9.97502
10.1863
9.32618
7.46241
6.98974
1.48349
1.45048
1.43488
1.44019
1.59198
2.23986
2.40223
2.53796
2.59481
2.59786
2.60137
2.71872
2.78481
2.7627
2.76069
2.82792
3.00594
3.1786
3.26764
3.29064
3.30318
3.31736
2.93022
2.52194
2.72039
1.48501
1.447
1.44399
1.4768
1.81101
2.60126
2.76173
3.36176
6.18899
6.55473
5.8411
4.93177
4.39391
3.64464
3.02707
2.54255
2.16379
1.8826
1.6605
1.51725
1.47601
1.49852
1.50609
1.49505
1.53106
1.48488
1.44783
1.45595
1.58112
3.0751
4.48971
4.49161
10.2366
10.871
10.1247
11.4431
10.3142
7.21392
4.48039
3.26181
2.74104
2.3168
1.95733
1.67813
1.4953
1.43204
1.44826
1.46148
1.42742
1.42542
1.48481
1.44411
1.45066
1.57838
3.23255
4.0342
3.63409
6.5551
3.58626
4.39078
3.76438
3.13148
2.72629
2.41202
2.01856
1.68629
1.55764
1.51271
1.48889
1.44535
1.43381
1.48233
1.44638
1.43505
1.46308
1.65164
1.99393
3.21509
3.57795
4.20787
5.76456
5.24465
3.87729
3.05719
2.5429
2.01254
1.66304
1.58259
1.53525
1.51471
1.46141
1.44895
1.48142
1.44685
1.42567
1.41316
1.42653
1.58214
4.22738
2.15272
5.26089
5.97144
4.11814
3.64418
3.26614
2.64307
1.95316
1.58036
1.51774
1.52341
1.52127
1.46947
1.45652
1.48136
1.44679
1.42325
1.40091
1.39359
1.46422
2.50646
10.7014
10.6843
11.872
8.78022
4.71051
4.75682
3.40299
3.03494
3.03265
2.89209
2.54941
2.02096
1.65056
1.53539
1.53034
1.52714
1.50147
1.49935
1.48141
1.44676
1.42216
1.39856
1.39748
1.47913
2.40965
4.57967
5.46626
5.91039
5.683
4.70277
3.46487
2.6571
2.63038
2.66936
2.5947
2.40444
2.12848
1.88142
1.73666
1.68586
1.66898
1.64198
1.64523
1.48145
1.44645
1.42104
1.39545
1.38898
1.49558
2.38797
3.33102
3.94838
4.09794
4.71478
4.18718
3.21692
2.57499
2.34903
2.29089
2.43623
2.5401
2.48319
2.40471
2.19223
1.964
1.7943
1.68125
1.66951
1.48144
1.44585
1.41971
1.39118
1.36941
1.46834
2.40157
3.16497
3.05235
2.84079
2.79375
2.54878
2.4111
2.40024
2.37886
2.28892
2.24542
2.10015
2.14032
2.41983
2.18949
1.91145
1.71665
1.62573
1.58724
1.48141
1.44515
1.4187
1.38883
1.3591
1.47308
2.53421
3.41471
2.94332
2.37539
2.27906
2.3278
2.58426
2.68433
2.65442
2.53244
2.31881
2.05224
1.92438
2.12487
2.17954
2.05173
1.89306
1.9918
1.95157
1.48124
1.44471
1.41809
1.38747
1.35334
1.49662
2.54209
3.61728
3.20527
2.37012
2.06607
2.35858
3.83766
4.26749
4.07747
3.35142
2.68143
2.30657
2.15945
2.35907
2.63526
2.74649
3.15521
3.95961
3.59104
1.48076
1.44494
1.41817
1.383
1.34527
1.33617
1.45667
1.7821
2.55185
2.69914
2.64629
2.76499
3.21167
3.65756
3.77775
3.85173
3.85517
3.93951
4.10906
4.32089
4.67414
5.14842
5.97799
5.99182
5.70504
1.48152
1.44329
1.41177
1.37077
1.34413
1.30504
1.27341
1.28595
1.34341
1.46394
1.63851
1.97876
2.41953
2.5242
2.81568
3.07235
3.05205
3.32628
3.85821
4.35554
4.86483
5.37499
5.77595
6.09993
6.119
1.48185
1.44275
1.41123
1.37116
1.34345
1.30296
1.30605
1.3948
1.40052
1.36795
1.37024
1.40655
1.50171
1.73368
1.94223
2.22552
2.42483
2.81056
3.48978
3.79873
4.04377
4.40761
4.53241
5.01884
5.19133
1.48182
1.44281
1.41069
1.37134
1.34365
1.30206
1.28922
1.32137
1.28298
1.26671
1.25613
1.22793
1.22379
1.25529
1.3002
1.44811
1.58421
2.12727
2.98984
3.21065
3.34281
3.64967
3.80099
4.11946
4.13327
1.4812
1.44399
1.4091
1.37367
1.34058
1.30657
1.27769
1.25147
1.22334
1.2065
1.18555
1.17536
1.15666
1.15635
1.15455
1.18969
1.22204
1.31506
1.54942
1.94143
2.38902
2.89665
3.04943
3.35283
3.44187
1.47976
1.44859
1.41763
1.41943
1.43054
1.45785
1.46098
1.45648
1.4511
1.45572
1.47791
1.52977
1.624
1.77494
1.99859
2.30489
2.69195
3.14531
3.65447
4.22632
4.91743
5.84151
6.61018
7.1773
7.25349
1.48081
1.44858
1.42685
1.42548
1.46688
1.55238
1.60142
1.67804
1.78293
1.88612
2.04443
2.35159
2.85979
3.54352
4.39028
5.39477
6.48238
7.55016
8.50629
9.30717
9.96734
10.3392
10.4894
10.6753
9.75353
1.48189
1.44967
1.43048
1.43021
1.51196
1.73257
1.97514
2.27897
2.35149
2.26095
2.28923
2.65399
3.28672
4.12907
5.14245
6.30231
7.52032
8.60221
9.41818
9.95968
10.3028
10.5339
9.62151
7.63861
7.22364
1.48298
1.4505
1.43344
1.43665
1.50658
1.73491
2.03306
2.33936
2.42209
2.37293
2.34208
2.34133
2.37477
2.41442
2.48417
2.62457
2.82334
3.00261
3.11836
3.18333
3.22507
3.2603
2.85658
2.53862
2.70636
1.48502
1.4477
1.43881
1.45749
1.6152
1.9808
2.32856
3.16597
5.22693
5.71472
5.0914
3.98784
3.22531
2.7897
2.48254
2.20645
1.95737
1.73911
1.56178
1.44815
1.40291
1.39785
1.38657
1.39442
1.44011
1.48521
1.4459
1.447
1.49891
1.89089
2.69343
3.41594
13.6542
17.0292
10.8768
11.7572
9.00455
5.18562
3.24681
2.74348
2.46259
2.12149
1.81516
1.57414
1.41836
1.35266
1.33375
1.32275
1.3045
1.30565
1.48406
1.44538
1.44323
1.49095
1.79576
2.32583
3.65138
10.4492
2.88927
3.23582
2.71898
2.50801
2.26605
2.03883
1.77962
1.58462
1.46306
1.36931
1.33352
1.30981
1.30373
1.48194
1.44709
1.43147
1.44268
1.52574
1.8619
4.68886
5.06533
3.00907
4.76554
3.907
3.04839
2.52003
2.06186
1.72771
1.57787
1.5351
1.39848
1.3463
1.3193
1.31284
1.48134
1.44687
1.42602
1.41461
1.43316
1.64923
5.60048
1.95515
5.17697
4.52761
3.46737
3.4381
2.92128
2.27535
1.75389
1.52374
1.46239
1.38342
1.34695
1.32187
1.3169
1.48129
1.4468
1.42385
1.40439
1.40463
1.52107
2.90344
11.6518
12.3854
11.5522
7.9076
4.04853
3.39543
2.81517
2.92383
2.90981
2.60509
2.18947
1.78965
1.55471
1.42653
1.36969
1.3471
1.33455
1.33549
1.48135
1.44672
1.42264
1.40075
1.39686
1.50134
2.45785
3.85665
4.70979
5.11256
4.9522
4.15007
3.18918
2.76398
2.69999
2.52624
2.25738
1.98456
1.7434
1.5787
1.48767
1.4369
1.4113
1.40002
1.40314
1.48144
1.44631
1.42146
1.39777
1.38856
1.51624
2.5103
3.25185
3.37204
3.32536
3.12259
2.78294
2.49372
2.38241
2.2897
2.21648
2.15662
2.03976
1.9008
1.82634
1.73391
1.62434
1.52666
1.46641
1.46119
1.4815
1.44566
1.42029
1.3945
1.37707
1.51852
2.63093
3.24566
2.85234
2.50118
2.33265
2.22058
2.22546
2.24639
2.18191
2.10019
2.03725
1.9106
1.86019
1.97256
1.91764
1.73874
1.57212
1.52748
1.53035
1.48153
1.44491
1.41948
1.39236
1.37098
1.5485
2.78393
3.48322
2.81555
2.18838
1.94855
1.95528
2.12985
2.26375
2.2685
2.15454
1.97105
1.79432
1.72555
1.82424
1.88969
1.80031
1.75827
2.11212
2.12928
1.48135
1.44456
1.41901
1.39081
1.36551
1.58296
2.7723
3.72705
3.11388
2.24012
1.84012
1.87949
2.37506
2.86578
2.9114
2.63571
2.33853
2.19111
2.19418
2.41447
2.7713
3.10336
3.88438
4.89337
4.47876
1.48077
1.44501
1.41911
1.38648
1.34912
1.36049
1.51231
1.90304
2.69361
2.74484
2.51914
2.37002
2.44545
2.8354
3.30521
3.67855
3.98929
4.31957
4.74432
5.24088
5.80556
6.4339
7.04014
7.05314
6.79863
1.48098
1.44419
1.41188
1.37362
1.34876
1.31252
1.28223
1.29556
1.36586
1.49084
1.64227
1.93251
2.16252
2.31349
2.45906
2.69057
2.95852
3.21973
3.65317
4.23178
4.83226
5.57106
6.08041
6.64088
6.74798
1.48152
1.44323
1.4116
1.37482
1.34622
1.31367
1.29198
1.28063
1.27936
1.28637
1.31248
1.36773
1.45629
1.64128
1.85041
2.09043
2.34805
2.59036
2.92789
3.32349
3.64952
4.14046
4.41134
5.03597
5.41344
1.48138
1.44354
1.41066
1.37551
1.34593
1.3139
1.28883
1.26845
1.25202
1.23548
1.23652
1.23656
1.24418
1.26618
1.31154
1.39868
1.59635
1.88503
2.27463
2.71045
3.02462
3.44706
3.69651
4.1503
4.31356
1.481
1.44421
1.40986
1.37641
1.34505
1.31467
1.28747
1.26266
1.24007
1.22504
1.2055
1.20211
1.19858
1.20693
1.21892
1.25801
1.3173
1.44208
1.66304
2.01004
2.38269
2.88909
3.19086
3.66181
3.77056
1.47995
1.4478
1.41772
1.4094
1.41329
1.42484
1.42555
1.42289
1.42477
1.43777
1.47349
1.54569
1.66976
1.8612
2.13315
2.48821
2.91693
3.40424
3.944
4.55172
5.25354
6.25669
6.95038
7.48846
7.58982
1.48105
1.4474
1.42723
1.41659
1.43015
1.46441
1.49805
1.5762
1.69686
1.82776
2.0223
2.38169
2.9708
3.76165
4.71848
5.79772
6.90903
7.96427
8.90163
9.68976
10.3012
10.7719
10.8793
10.9688
10.0804
1.48176
1.44867
1.42936
1.42169
1.4468
1.5123
1.73136
2.08653
2.1946
2.12362
2.20889
2.64683
3.37877
4.31178
5.37054
6.53621
7.716
8.7469
9.54569
10.0877
10.4436
10.6842
9.75576
7.73259
7.37209
1.48238
1.44984
1.43174
1.42789
1.45768
1.54532
1.81662
2.16747
2.22741
2.12262
2.07411
2.08928
2.16278
2.23563
2.33152
2.49448
2.69828
2.87956
3.01273
3.10484
3.17479
3.22598
2.838
2.55503
2.74622
1.48321
1.44965
1.43329
1.43794
1.49768
1.64835
1.99656
2.82925
4.01465
4.32093
3.85692
3.15754
2.70226
2.43349
2.22236
2.02439
1.83185
1.6566
1.51531
1.42531
1.38467
1.37207
1.35994
1.38768
1.4381
1.48348
1.44829
1.43665
1.45254
1.56449
1.81748
2.61634
13.2736
12.662
13.2301
8.36945
5.25305
3.56744
2.80144
2.51916
2.25794
1.96338
1.70661
1.50755
1.38245
1.32711
1.30391
1.29316
1.28949
1.29012
1.48246
1.44768
1.43353
1.44702
1.53329
1.77502
3.53222
16.0046
2.87285
2.74897
2.58065
2.37229
2.09311
1.8429
1.64295
1.50398
1.39993
1.32495
1.29835
1.29111
1.28116
1.48151
1.44705
1.42833
1.42679
1.46668
1.72209
4.98867
8.05744
5.90256
3.4378
3.11986
3.05167
2.58965
2.06871
1.68904
1.52168
1.44357
1.34169
1.30337
1.29512
1.28521
1.4812
1.44661
1.42498
1.41076
1.42661
1.64267
5.68147
1.31608
5.63952
3.07618
3.50057
3.42723
2.79387
2.14625
1.68581
1.47489
1.39691
1.33063
1.3023
1.29535
1.28797
1.48117
1.44657
1.42313
1.40322
1.4037
1.53228
3.03115
10.871
10.6129
9.28197
6.45769
3.18308
2.58975
2.73949
3.04616
2.87832
2.44223
2.00692
1.67678
1.47573
1.36958
1.31957
1.30118
1.29955
1.29652
1.48126
1.44646
1.42195
1.39954
1.39281
1.50269
2.45448
3.51665
4.01847
4.26219
3.96222
3.30511
2.73989
2.63639
2.56439
2.35424
2.05751
1.77977
1.56493
1.43755
1.37481
1.3386
1.32246
1.32678
1.32731
1.48139
1.44603
1.42085
1.39699
1.38543
1.51848
2.53685
3.12008
2.86556
2.64872
2.47638
2.31804
2.2295
2.19761
2.12931
2.01912
1.86735
1.70091
1.56885
1.50391
1.46037
1.4113
1.37287
1.36844
1.37309
1.48152
1.44538
1.41987
1.39456
1.37851
1.5423
2.71921
3.26926
2.70838
2.22718
1.9849
1.92424
1.94388
1.99264
1.95937
1.88324
1.77621
1.64988
1.56471
1.56332
1.53861
1.47117
1.41208
1.46983
1.49809
1.48159
1.44463
1.41941
1.39265
1.37517
1.59183
2.90924
3.53238
2.80188
2.10324
1.776
1.73658
1.82369
1.93054
1.95297
1.87747
1.75045
1.62995
1.56077
1.57185
1.60016
1.58644
1.70057
2.27952
2.32372
1.4814
1.44438
1.41904
1.39103
1.37056
1.6364
2.90875
3.80938
3.11262
2.21987
1.77479
1.72198
1.89336
2.15294
2.27266
2.22317
2.15668
2.18241
2.3405
2.65544
3.09147
3.56217
4.59356
5.66718
5.29622
1.48072
1.44506
1.41903
1.38713
1.3492
1.37299
1.54698
1.99216
2.78737
2.81181
2.52848
2.23236
2.2056
2.47895
2.94571
3.45782
3.97045
4.51423
5.13962
5.84669
6.60131
7.36421
7.85563
7.86983
7.64386
1.48057
1.4449
1.41097
1.3745
1.34961
1.31278
1.2865
1.30612
1.38869
1.51965
1.69005
1.97547
2.13053
2.25876
2.42564
2.68118
2.97296
3.28467
3.73716
4.41491
5.06818
5.86576
6.43131
7.05988
7.25392
1.48119
1.44374
1.41093
1.3763
1.34554
1.31666
1.29101
1.26695
1.25957
1.27122
1.30377
1.36266
1.46923
1.65241
1.8714
2.11709
2.36924
2.62314
2.90997
3.30134
3.63145
4.11959
4.51383
5.1634
5.63514
1.48109
1.44399
1.41014
1.37667
1.34598
1.3164
1.28936
1.26739
1.24726
1.22904
1.22982
1.2383
1.25578
1.28879
1.34574
1.4382
1.65404
1.95774
2.28387
2.67758
3.01403
3.43709
3.75332
4.23528
4.49512
1.48088
1.44433
1.4098
1.37691
1.34577
1.31683
1.28945
1.26544
1.24619
1.2302
1.21304
1.21425
1.21694
1.23155
1.25428
1.29545
1.38025
1.56584
1.8263
2.18197
2.54964
3.02961
3.36834
3.86937
4.03469
1.48034
1.44651
1.41866
1.40194
1.40124
1.40252
1.40093
1.39885
1.40691
1.43146
1.48441
1.58027
1.7354
1.96492
2.27772
2.67045
3.12821
3.63656
4.19184
4.81141
5.52422
6.51867
7.22727
7.75859
7.84259
1.48103
1.4468
1.42615
1.40946
1.41224
1.42422
1.44794
1.52214
1.66299
1.83454
2.08059
2.50247
3.15841
4.02439
5.05903
6.18703
7.30639
8.33756
9.24424
10.0132
10.587
11.0778
11.1745
11.2265
10.3845
1.48153
1.4479
1.42789
1.41512
1.41987
1.44154
1.63486
2.01746
2.16627
2.13806
2.25965
2.7311
3.51557
4.51833
5.64078
6.83053
7.97042
8.93574
9.68932
10.2115
10.5671
10.8083
9.8808
7.84852
7.54095
1.48194
1.44889
1.42985
1.42016
1.42922
1.46794
1.71269
2.0717
2.11087
1.98375
1.95162
1.99264
2.12052
2.22486
2.34263
2.51319
2.71162
2.88041
3.00975
3.10772
3.18611
3.24321
2.87561
2.57671
2.87422
1.4822
1.44922
1.4312
1.42598
1.44632
1.5105
1.8055
2.47427
3.00582
3.13532
2.92323
2.65281
2.47658
2.31669
2.14437
1.97799
1.8124
1.65958
1.53784
1.46122
1.4245
1.40899
1.40326
1.4632
1.51587
1.48214
1.44857
1.43165
1.43123
1.46689
1.56648
2.14295
5.81952
9.04262
7.37362
5.73096
4.26587
3.26049
2.78382
2.49261
2.20119
1.92108
1.68342
1.50569
1.40241
1.35811
1.33736
1.33597
1.35882
1.35684
1.48166
1.44751
1.42978
1.42787
1.46038
1.59356
2.77588
18.3724
20.1013
16.1037
10.6616
6.77722
4.12859
3.10174
2.89871
2.57186
2.19104
1.86057
1.6125
1.46123
1.39008
1.34751
1.33854
1.35768
1.34517
1.48121
1.44661
1.4265
1.41747
1.43961
1.62209
3.65619
20.1022
22.5744
16.1388
10.4224
6.63445
4.13675
3.3987
3.41836
3.11337
2.53907
2.00816
1.64585
1.47218
1.40667
1.35495
1.34089
1.35939
1.34684
1.48105
1.44625
1.42391
1.40725
1.41744
1.5907
3.75538
19.4547
16.8165
11.9025
7.98327
5.2482
3.53154
3.4857
3.66065
3.28777
2.61443
2.02433
1.63272
1.44942
1.38792
1.34946
1.33991
1.3595
1.34825
1.48102
1.44625
1.42232
1.4015
1.39937
1.51403
2.78566
6.38166
7.68612
6.70457
5.06511
3.58811
2.99515
3.10769
3.15574
2.82773
2.34728
1.9187
1.61115
1.44287
1.37508
1.3432
1.33888
1.36151
1.35271
1.48115
1.44616
1.4212
1.3982
1.38899
1.49167
2.37657
3.21226
3.34526
3.34207
3.04368
2.67742
2.53616
2.54196
2.47675
2.27165
1.989
1.72406
1.52691
1.41923
1.3717
1.34666
1.3456
1.37347
1.36878
1.48134
1.44575
1.42026
1.39612
1.38282
1.51769
2.50489
3.03111
2.65426
2.32404
2.15275
2.08066
2.08226
2.0981
2.06181
1.95568
1.79426
1.6279
1.50122
1.43299
1.39736
1.36992
1.3651
1.39792
1.40542
1.48153
1.44509
1.41948
1.39427
1.379
1.55795
2.75777
3.27957
2.67842
2.12743
1.85931
1.81519
1.84248
1.90666
1.89151
1.82446
1.71516
1.5948
1.50006
1.45412
1.42722
1.39765
1.39783
1.52053
1.56031
1.48162
1.44438
1.41932
1.3925
1.37761
1.62391
3.00317
3.59478
2.85346
2.13564
1.76769
1.70825
1.75731
1.83484
1.85013
1.80058
1.70886
1.61377
1.54684
1.53052
1.54147
1.56157
1.76933
2.5332
2.5838
1.48144
1.44421
1.41904
1.39084
1.3736
1.6843
3.04035
3.91177
3.16645
2.27438
1.81791
1.7298
1.79482
1.92643
2.03888
2.08844
2.14104
2.27825
2.54713
2.95685
3.47574
4.03907
5.23519
6.40874
6.02395
1.4807
1.44507
1.4189
1.3874
1.34991
1.38457
1.58911
2.12244
2.92771
2.94035
2.60513
2.28077
2.21469
2.41221
2.85245
3.39878
4.00789
4.69676
5.48338
6.34627
7.23842
8.09917
8.53887
8.55346
8.34864
1.48029
1.44545
1.40999
1.37514
1.34987
1.31086
1.29082
1.32241
1.42486
1.57019
1.77718
2.07616
2.21984
2.3434
2.51914
2.77786
3.05364
3.42909
3.97064
4.68912
5.37832
6.18679
6.78166
7.44164
7.70423
1.48097
1.44407
1.41059
1.37666
1.34522
1.31727
1.29013
1.26298
1.2615
1.2769
1.31601
1.38456
1.51057
1.719
1.95144
2.20991
2.45432
2.72022
3.02788
3.40748
3.75186
4.24977
4.72777
5.36864
5.85913
1.48094
1.44419
1.40996
1.37692
1.34602
1.31671
1.28911
1.26774
1.24602
1.22914
1.2306
1.2425
1.26662
1.30998
1.37981
1.49251
1.74416
2.0611
2.3992
2.78162
3.12957
3.54587
3.90297
4.39538
4.69826
1.48081
1.44441
1.40977
1.37696
1.34598
1.31726
1.28962
1.26579
1.24837
1.23104
1.21544
1.21518
1.21997
1.23842
1.27154
1.32267
1.43597
1.66453
1.9659
2.35445
2.74513
3.22376
3.58175
4.08646
4.27894
1.48037
1.44614
1.41814
1.3988
1.39336
1.3888
1.38452
1.38795
1.40827
1.45234
1.53012
1.65523
1.84322
2.10692
2.45085
2.86847
3.34325
3.86135
4.41894
5.02716
5.73046
6.56763
7.48091
7.85026
7.98642
1.48094
1.44636
1.42533
1.40627
1.40166
1.40414
1.42932
1.521
1.71959
1.9749
2.30262
2.79641
3.51189
4.43414
5.51342
6.66561
7.78072
8.7852
9.6571
10.4044
10.9304
11.4046
11.4421
11.5379
10.7057
1.48132
1.44728
1.42666
1.41103
1.40524
1.41292
1.62778
2.09954
2.35842
2.41633
2.61028
3.12227
3.9375
4.9791
6.14399
7.34071
8.42835
9.32106
10.0063
10.4891
10.8264
11.0557
10.1262
8.08618
7.7614
1.48162
1.44807
1.42824
1.41466
1.41243
1.43286
1.69331
2.11279
2.22947
2.18013
2.17743
2.24247
2.38941
2.51333
2.63884
2.79966
2.96804
3.10076
3.19934
3.27736
3.3452
3.40105
3.03211
2.77146
3.05303
1.48172
1.4483
1.42931
1.418
1.4222
1.45708
1.73278
2.25529
2.5874
2.69577
2.71982
2.69967
2.63311
2.49972
2.32316
2.14396
1.96709
1.80662
1.68255
1.60545
1.56472
1.54238
1.54207
1.61812
1.66367
1.48155
1.44777
1.42944
1.42068
1.43277
1.49115
1.89412
3.32143
5.10393
5.09598
4.40341
3.77741
3.36403
3.01514
2.67277
2.34716
2.04787
1.79922
1.62379
1.52898
1.48727
1.46376
1.4722
1.51188
1.48942
1.48122
1.44678
1.42771
1.41836
1.43358
1.52791
2.28189
7.13901
10.4649
9.08223
6.98405
5.07526
3.97185
3.54931
3.18957
2.74033
2.29208
1.92646
1.67387
1.546
1.49741
1.46797
1.4735
1.51024
1.47526
1.48094
1.44605
1.4251
1.41136
1.42426
1.55603
2.76826
11.1613
12.4619
10.4805
7.90514
5.49023
4.10458
3.90158
3.64676
3.11248
2.49079
1.99639
1.68478
1.54758
1.50248
1.47094
1.47471
1.51098
1.47552
1.48085
1.44584
1.42294
1.40475
1.40921
1.53697
2.8389
8.81623
10.1518
8.37592
6.29655
4.59449
3.89163
3.91968
3.71619
3.16471
2.51066
1.99602
1.67678
1.53927
1.49488
1.46765
1.47357
1.51056
1.47604
1.48089
1.4459
1.42155
1.39998
1.39474
1.49197
2.4237
4.05715
4.86681
4.68102
3.9539
3.36889
3.31323
3.37337
3.22611
2.82692
2.34357
1.93684
1.66572
1.53645
1.48836
1.46305
1.47214
1.51103
1.4782
1.48105
1.44588
1.42051
1.39718
1.38563
1.48482
2.31822
3.00536
2.9952
2.91042
2.74306
2.65051
2.66539
2.69231
2.59764
2.37085
2.08033
1.81515
1.62808
1.52997
1.48625
1.46235
1.4743
1.51636
1.48724
1.48131
1.44547
1.41973
1.39548
1.38102
1.51976
2.52226
3.05576
2.71886
2.37812
2.22985
2.21601
2.2468
2.28061
2.2257
2.09482
1.91846
1.74505
1.61349
1.53768