/*--------------------------------*- C++ -*----------------------------------*\
  =========                 |
  \\      /  F ield         | OpenFOAM: The Open Source CFD Toolbox
   \\    /   O peration     | Website:  https://openfoam.org
    \\  /    A nd           | Version:  6
     \\/     M anipulation  |
\*---------------------------------------------------------------------------*/
FoamFile
{
    version     2.0;
    format      ascii;
    class       volScalarField;
    location    "45";
    object      nut;
}
// * * * * * * * * * * * * * * * * * * * * * * * * * * * * * * * * * * * * * //

dimensions      [0 2 -1 0 0 0 0];

internalField   nonuniform List<scalar> 
230684
(
0.940688
0.903505
0.867251
0.84249
0.403052
0.383715
0.370495
0.723833
0.710578
0.704002
0.696127
0.694841
0.691551
0.693059
0.696009
0.700095
0.71008
0.728782
0.756736
0.795048
0.843068
0.897412
0.966655
1.02502
1.06811
0.938092
0.907928
0.432268
0.398907
0.179621
0.166739
0.0779447
0.420491
0.38185
0.362533
0.341841
0.327646
0.331541
0.363539
0.395563
0.414674
0.440381
0.477468
0.522242
0.564385
0.604657
0.635209
0.641407
1.6224
1.46492
0.939075
0.905632
0.434044
0.191629
0.176427
0.156997
0.137388
0.234569
0.222489
0.192972
0.183657
0.181006
0.163343
0.162607
0.176903
0.193138
0.218752
0.250874
0.275599
0.291786
0.29701
0.294303
0.683864
1.47072
1.33616
0.987159
0.434878
0.20033
0.172758
0.152336
0.159179
0.111674
0.236332
0.204724
0.23398
0.235848
0.115903
0.0888229
0.0768233
0.0481916
0.180911
0.19125
0.196941
0.198638
0.195595
0.194168
0.197013
0.455446
1.0074
0.961885
0.938397
0.906134
0.43087
0.184421
0.156673
0.159481
0.175192
0.200701
0.21481
0.170982
0.207392
0.118419
0.094963
0.0714987
0.0573933
0.149025
0.209007
0.215667
0.198887
0.184375
0.178258
0.182684
0.424151
0.953248
0.857082
0.938816
0.907534
0.432368
0.180021
0.0651297
0.122156
0.0946004
0.0981043
0.285027
0.295442
0.268893
0.285607
0.211324
0.168374
0.0388845
0.122348
0.167885
0.16556
0.155851
0.149358
0.144352
0.153705
0.404893
0.930133
0.853785
0.938885
0.907106
0.432941
0.179428
0.112819
0.11894
0.0773509
0.0819568
0.0920665
0.0810039
0.0676111
0.084701
0.0648636
0.188798
0.12543
0.226162
0.258868
0.250006
0.231675
0.216487
0.203047
0.19356
0.439532
0.901603
0.900579
0.938719
0.905308
0.433726
0.188695
0.158659
0.137772
0.113468
0.159473
0.157523
0.132137
0.121982
0.108123
0.0964477
0.332307
0.385091
0.396941
0.372512
0.324292
0.271145
0.234076
0.21357
0.201459
0.429039
0.92069
0.855448
0.938233
0.904514
0.43373
0.190958
0.167323
0.148427
0.128369
0.19381
0.168667
0.146046
0.128165
0.112673
0.304236
0.370418
0.413328
0.417278
0.377109
0.314047
0.257278
0.220085
0.198587
0.187581
0.404054
0.902653
0.855992
0.937947
0.904154
0.433543
0.191365
0.167439
0.149692
0.135637
0.0716294
0.260984
0.199039
0.160079
0.107602
0.246118
0.163271
0.245013
0.351224
0.379307
0.323394
0.265854
0.227522
0.203191
0.198622
0.441853
1.02514
0.917996
0.937779
0.904156
0.433598
0.190873
0.148816
0.0447941
0.0461572
0.118851
0.111536
0.102712
0.0960864
0.0864392
0.0733208
0.208615
0.192598
0.191621
0.201331
0.223927
0.237764
0.23909
0.234122
0.228225
0.509098
1.01965
1.0128
0.937827
0.903997
0.434031
0.192459
0.167315
0.143544
0.0721599
0.13115
0.0939366
0.104104
0.0904319
0.0951136
0.0402747
0.0834454
0.0879023
0.073477
0.0643154
0.141265
0.142249
0.134474
0.201953
0.197911
0.443779
0.947344
0.904167
0.937795
0.903914
0.434414
0.193696
0.173373
0.157996
0.148933
0.169729
0.0988784
0.0830828
0.0759993
0.0680879
0.121375
0.0712163
0.0510647
0.0883264
0.0243735
0.178402
0.137607
0.0918809
0.0658434
0.14731
0.353671
0.358219
0.785533
0.937663
0.903994
0.434554
0.194291
0.174771
0.16135
0.153155
0.14427
0.166361
0.176279
0.183234
0.19538
0.255686
0.194997
0.174196
0.0391179
0.13549
0.179169
0.154565
0.237871
0.132539
0.0946637
0.0755218
0.141184
0.72561
0.937593
0.903799
0.43461
0.194443
0.175071
0.161441
0.149679
0.148814
0.187697
0.210561
0.211371
0.284365
0.108688
0.0801207
0.143626
0.21029
0.214231
0.192192
0.164061
0.171054
0.195131
0.0936302
0.0935711
0.212872
0.875018
0.934999
0.908068
0.430323
0.399885
0.375334
0.355103
0.337578
0.323726
0.31422
0.319547
0.162479
0.101897
0.102201
0.068901
0.182114
0.168479
0.119052
0.448528
0.178404
0.110297
0.0926051
0.0822571
0.145966
0.898749
0.86308
0.939262
0.900045
0.863086
0.834585
0.803782
0.782908
0.375197
0.346833
0.69615
0.331773
0.143848
0.130137
0.11162
0.0685303
0.0648967
0.121056
0.111423
0.204106
0.122932
0.224261
0.0858921
0.154182
0.432015
1.33077
1.20414
0.9409
0.896574
0.866264
0.828966
0.809972
0.383228
0.178023
0.159274
0.389162
0.805193
0.362349
0.152763
0.158063
0.153138
0.157608
0.133721
0.165521
0.162774
0.268742
0.36928
0.122732
1.65712
1.53475
1.5053
1.36924
0.939204
0.899674
0.862439
0.834554
0.803046
0.784534
0.383797
0.171604
0.366433
0.725369
0.339173
0.199033
0.115857
0.429666
0.401863
0.394706
0.365603
0.158163
0.241221
0.395079
0.637844
1.38589
1.32947
1.33684
1.21328
0.939741
0.898502
0.864067
0.832468
0.80677
0.781251
0.761976
0.741038
0.728115
0.714281
0.707998
0.343334
0.335879
0.655057
0.648387
0.652377
0.314949
0.156138
0.185447
0.381849
0.789851
0.814741
0.83361
0.848728
0.859696
5.29662
4.43116
3.75871
3.30742
2.60412
2.21019
2.04543
1.9137
1.95087
1.98814
1.96565
2.02995
2.16269
2.43967
2.69683
3.0559
3.56664
4.32612
5.05235
5.90233
6.69332
7.4386
8.60671
8.4942
8.18278
5.2684
4.38402
3.30566
2.47888
1.45481
0.420796
0.15184
0.346635
0.49828
0.66953
0.937725
1.50319
2.35901
3.07062
3.53454
4.38082
5.2421
6.09017
6.72501
7.10778
7.30059
7.33586
7.21926
8.07956
7.40731
5.22558
4.33412
3.26306
1.96849
1.43103
1.53854
1.71975
1.82737
1.9638
1.79722
1.53767
1.86117
3.05125
4.1882
5.31996
6.22241
6.70164
6.80984
6.80484
6.8278
6.88935
6.8054
6.12797
5.32061
3.78771
2.78531
1.40821
0.977441
0.670869
0.902792
1.38344
1.94603
0.753943
1.00757
1.65395
2.2765
3.0328
3.55495
3.83009
3.85451
3.87667
3.90697
3.79373
3.7076
5.17576
4.17948
3.07837
1.75395
1.22483
0.695818
0.588549
0.766453
1.39486
2.20453
3.00012
0.897181
1.20298
1.27527
1.55113
2.00005
2.33048
2.49331
2.50459
2.60625
2.51412
2.60094
5.16373
4.10269
3.07224
1.83621
0.486049
1.23958
2.15233
2.80597
1.53301
0.907528
0.875692
0.973508
1.25516
1.30445
1.40706
1.48481
1.72634
2.35021
2.80438
3.00202
2.64554
5.18914
4.18439
3.12341
1.90088
0.605155
0.122556
0.391838
0.84679
1.11032
1.35108
1.45473
1.60681
1.77532
2.02402
2.33442
2.8234
2.91742
3.01104
2.72291
5.22265
4.41775
3.09828
1.94695
1.11359
0.606346
0.474977
0.131819
1.95464
3.21628
3.04034
3.26429
3.33915
2.9733
2.56314
2.54664
2.86058
2.80408
2.80148
2.62448
2.768
5.24857
4.47681
3.25777
2.0658
1.69907
1.39639
1.06668
3.05216
2.96237
2.94528
3.48244
3.72413
3.27418
2.73193
2.66302
2.80158
2.6669
2.79618
2.91946
2.64096
5.26536
4.48161
3.37068
2.11083
1.76777
1.47161
1.0818
1.78758
0.912107
1.44055
1.50864
0.275993
0.933857
1.68274
1.9475
2.07649
3.15472
3.28071
2.96148
2.7017
2.74036
2.69643
2.84232
2.96764
2.85614
5.27912
4.50588
3.4029
2.13332
1.65506
0.303832
0.506524
0.188384
0.398282
0.899651
1.06168
1.30354
1.99668
2.75877
2.7981
2.79027
2.80149
2.82303
2.80624
2.60073
2.65937
5.29547
4.57565
3.4462
2.18565
1.87122
1.0472
0.343883
0.375464
0.0797902
0.160582
0.827936
0.832135
0.677192
0.948527
1.27693
1.44024
1.55838
1.76974
5.3121
4.62855
3.3859
2.23632
1.97965
1.81946
1.52966
1.80384
0.268111
0.414899
0.783506
0.283452
0.255872
0.265743
1.27679
0.0391057
0.216035
0.582682
0.827921
0.965079
1.29078
5.33313
4.60088
3.50625
2.27097
2.05374
1.95853
2.74202
4.12701
3.49613
2.87086
1.91722
1.16906
0.222081
0.357851
0.42714
0.166307
0.687723
1.00967
0.929675
0.937051
0.420078
0.717778
1.03466
5.32948
4.66307
3.42951
2.29089
2.08937
2.01852
3.13254
4.45017
4.43985
4.07399
3.56187
3.11668
0.77546
0.915759
1.36632
1.31238
1.30197
1.13432
0.805313
0.611217
0.353941
0.751965
0.77348
1.46148
5.33237
4.66608
3.25336
2.79628
2.52901
2.37447
2.34462
2.62987
3.50262
4.55764
4.13049
0.354415
0.57008
1.50548
0.93179
1.14244
0.368551
2.32449
2.36436
5.34162
4.52207
4.02528
3.62571
3.35461
3.15649
2.51816
2.16026
2.00086
2.13738
2.54723
1.87745
0.0935659
0.0811727
1.24019
0.673327
1.25429
1.456
1.74101
2.45956
3.28122
3.61646
5.33671
4.52006
4.01419
3.63354
3.36093
2.61219
1.97116
0.672672
0.643549
0.739862
0.681745
0.966569
1.34335
0.271651
0.346125
0.319829
0.727984
1.34106
1.47527
2.62107
2.77038
3.00033
3.19809
5.34149
4.51982
4.02515
3.62408
3.34818
3.16779
2.27959
0.291763
0.472304
0.746771
0.692113
0.689361
0.644724
1.02656
1.19265
1.26498
1.50469
1.29035
1.67258
1.74232
1.95441
2.1021
2.32051
5.33825
4.52723
4.02546
3.65093
3.37205
3.13156
2.89416
2.6878
2.51879
2.28991
2.17611
1.63405
1.36715
1.61805
1.37235
1.22319
1.13425
1.06736
0.383977
0.893182
1.81359
2.08749
2.29486
2.60446
2.60172
6.67095
6.39337
5.96918
5.80673
5.15619
4.73575
4.48701
4.3037
4.29337
4.21463
4.2432
4.28981
4.39508
4.55993
4.74938
4.98259
5.2871
5.70055
6.22785
6.89585
7.76806
8.97898
11.5226
12.2851
12.1422
6.67332
6.37867
5.8478
5.36841
3.48053
2.43124
1.90013
2.07637
2.34602
2.73549
3.29905
3.83515
4.52053
5.2761
6.08777
7.01221
7.99214
8.91555
9.68369
10.2304
10.5938
10.5905
10.7347
11.2845
10.5644
6.66837
6.34676
5.88087
5.12352
2.17564
1.33994
1.38984
1.66106
2.13312
2.37783
2.64569
3.07536
3.91308
5.1072
6.28344
7.32002
8.41143
9.29751
9.81071
10.0521
10.0532
10.066
9.70411
8.95581
8.65318
6.6847
6.3715
5.90023
5.0854
4.1731
1.24711
1.06028
1.63543
2.09239
2.68008
3.28826
2.31421
2.17404
2.44074
3.14231
3.65585
4.50756
5.57906
5.96232
6.00231
5.97744
5.83155
5.46212
5.16885
5.34242
6.67947
6.23211
5.81906
4.99015
3.85437
0.997047
0.898567
1.29698
2.92134
3.42738
3.7908
3.38942
2.29317
2.22455
2.39323
2.49999
2.57286
3.15853
3.9716
4.14417
4.04984
3.82067
3.69429
3.93384
3.82959
6.66746
6.20631
5.84164
5.05009
2.57271
2.18888
3.78576
4.19691
4.20171
3.72363
2.96072
2.66944
2.61094
2.6422
2.93567
3.27269
3.41195
3.71127
3.97312
3.96431
4.19351
3.95504
6.68429
6.2211
5.86891
4.77121
1.77308
0.311142
1.23412
1.84148
2.28435
2.69701
3.0264
3.15749
3.02779
3.17397
3.84722
4.07102
4.06766
4.23308
4.01014
6.67973
6.33829
5.853
5.11333
2.59483
1.6175
1.05571
0.169076
2.96552
2.66987
2.72261
2.98411
3.02012
2.75826
2.46366
2.78065
3.87519
3.97516
3.83804
3.87168
3.92344
6.66878
6.38641
5.89861
5.15571
4.64792
4.07791
4.00819
0.240768
3.05724
3.06421
2.68153
2.86265
3.05371
2.75813
2.40927
2.82728
3.81958
3.82479
3.73889
4.0317
3.82125
6.68322
6.38988
5.94184
5.20124
4.71862
4.17329
4.12634
3.78248
2.15712
2.16547
1.61821
0.905784
1.3715
1.59189
2.07388
3.69757
3.94575
3.74816
3.33713
3.48078
3.95831
3.90578
3.87764
3.97972
3.94681
6.68649
6.40032
5.95696
5.23494
4.75975
2.66638
1.74954
0.154344
0.141928
0.144752
0.163602
0.312199
0.55122
0.777509
1.37106
2.17422
2.82196
3.07346
2.99578
3.03895
3.23066
3.41049
3.48758
3.43332
3.58033
6.6902
6.41577
5.97999
5.28617
4.89948
4.25036
2.1584
0.879928
0.461428
0.145944
0.113365
0.104859
0.0992692
0.0917046
0.0895451
0.0885553
0.150118
0.960377
1.51071
1.88187
2.08307
2.02971
2.26878
2.59117
2.92883
6.69417
6.42812
5.99237
5.3338
4.97423
4.76828
5.42911
5.44737
2.70521
1.82966
0.12624
0.266551
0.794994
1.08395
1.46186
0.860071
0.606375
0.906904
1.54869
1.01582
1.1402
1.2252
1.7006
2.34596
2.56042
6.69799
6.43237
6.00755
5.36837
5.03809
4.93998
5.79298
6.40647
6.09786
4.50222
2.69744
1.63254
1.48037
1.65501
1.84328
2.07699
2.45019
2.34568
1.43092
0.810347
0.866807
1.13152
1.72687
2.51399
2.64663
6.6986
6.43788
6.0111
5.38905
5.0788
5.09755
5.82594
6.63853
6.92821
6.24938
5.46383
4.6502
1.50356
1.81996
2.39581
2.61572
2.63879
2.78278
2.74455
2.60197
2.21077
1.89501
2.81169
4.43124
4.41472
6.69632
6.43574
5.96665
5.56655
5.25616
4.97866
4.90675
4.87653
5.95376
6.61056
6.28269
2.56877
1.51313
1.78157
2.02214
2.12562
2.15248
2.69499
3.21329
3.27716
3.67043
4.10251
4.76705
5.81571
6.24137
6.70924
6.41443
6.16946
5.82723
5.63275
5.33776
4.81478
4.41657
4.32293
4.26098
4.84292
3.07029
1.55821
1.79085
1.93748
2.00946
2.08071
2.26846
2.62278
3.19058
3.67249
4.44824
4.93625
4.95132
5.75886
6.70919
6.41608
6.15816
5.83815
5.62508
5.00452
4.45184
1.34414
1.19963
1.546
1.4967
1.97925
2.50087
3.05938
2.40138
2.37753
2.60256
2.43556
1.77344
2.28604
2.73574
3.52629
3.43068
3.90245
4.62467
6.7109
6.41394
6.16109
5.83465
5.60701
5.33767
4.66022
0.551036
1.20348
2.05074
1.65988
1.34396
1.27649
1.75361
2.31262
2.30636
2.77104
1.80106
1.59311
2.11029
2.93032
2.85491
3.26441
3.38525
3.90177
6.70489
6.4263
6.14856
5.85924
5.59593
5.34239
5.09784
4.88337
4.63011
4.37961
4.1046
3.83814
3.70972
3.35919
3.164
3.03614
2.53445
2.04118
2.5233
3.53877
4.68709
4.24202
4.97313
5.12662
5.34272
6.73566
6.72941
6.62805
6.6116
6.64553
6.60589
6.49578
6.28536
6.1546
6.05664
6.02635
6.04074
6.05726
6.07258
6.10418
6.19933
6.4195
6.79171
7.31238
8.01271
9.01464
10.6999
13.3369
14.6148
14.1809
6.73754
6.73178
6.595
6.58711
6.50826
5.93042
5.28657
5.15992
5.23063
5.36378
5.70315
6.22272
6.66747
7.13068
7.81481
8.63457
9.54668
10.441
11.1954
11.7993
12.3337
12.5631
12.5699
12.7511
12.274
6.74493
6.72438
6.60207
6.50479
6.40744
4.49119
3.9769
4.34934
4.60534
4.76913
5.2745
6.32181
6.93346
7.4902
8.20955
9.09536
10.0713
10.837
11.3124
11.5563
11.6041
11.5897
11.1143
9.99213
9.90714
6.7527
6.71874
6.62478
6.49978
6.58634
5.38563
4.63807
4.86699
4.97389
5.12621
5.52954
6.08198
6.09575
5.96732
5.94527
6.03958
6.56927
7.15024
7.25598
7.09258
7.0282
6.80574
6.34347
5.75709
6.27205
6.76168
6.6823
6.63366
6.51465
6.51976
3.58603
2.30904
2.72501
4.311
4.10306
3.95028
4.45028
4.93908
4.81374
4.72316
4.57457
4.67338
5.32337
5.85009
5.81704
5.74028
5.59416
5.39108
5.45896
5.22314
6.7676
6.68117
6.642
6.733
5.53048
2.16695
2.34436
4.48794
2.19756
3.63152
4.45845
4.21012
3.59036
3.34133
4.07945
4.67239
4.73325
4.81264
4.89052
5.12408
5.53002
5.62974
5.50495
5.51517
5.32394
6.76936
6.67124
6.63547
6.5802
3.62388
1.94072
1.76771
1.72972
1.18622
2.39483
3.21211
3.97882
4.0611
3.74898
3.33579
3.66243
5.24671
5.64424
5.55103
5.51066
5.32725
6.75108
6.70674
6.62316
6.51802
6.20552
4.0963
3.66372
0.236701
2.40686
2.50491
2.6515
2.29825
2.17036
2.12672
1.99957
2.51724
4.76437
5.45308
5.29319
5.25668
5.18766
6.7451
6.71446
6.61007
6.44983
6.29326
6.28926
6.28161
0.252254
2.84021
2.48728
1.89203
2.2405
2.50712
2.30857
2.01538
2.63028
4.88377
5.31937
5.20362
5.28501
5.15527
6.7461
6.71459
6.61715
6.44932
6.28756
6.19644
7.36642
4.20224
2.70409
2.9304
2.22058
0.915407
1.5846
1.96252
3.47756
4.38433
4.33298
3.56018
3.15778
3.86281
5.29482
5.37292
5.2707
5.28908
5.15937
6.74722
6.71414
6.61958
6.46014
6.32202
6.19812
5.33902
2.92214
2.58332
2.67566
2.7054
2.53696
2.36487
2.93743
4.8009
5.2377
4.90375
4.32195
3.90632
3.95974
4.21989
4.41399
4.55075
4.64613
4.71919
6.74863
6.71246
6.62369
6.47298
6.35273
6.46783
6.92203
4.47962
2.12108
1.37769
1.51333
1.57838
1.64951
2.50906
3.55354
3.72784
3.71273
3.7504
3.47071
3.26926
3.18675
3.13225
3.44039
3.91966
4.15322
6.74963
6.71034
6.62538
6.47716
6.34086
6.57135
7.01394
7.64271
6.07814
3.87561
2.55478
2.15734
2.41381
2.99015
3.30616
3.1631
3.16421
3.22684
2.71319
1.74527
2.02512
2.75787
3.3966
4.0343
4.24047
6.75013
6.70814
6.62792
6.48141
6.34238
6.68396
6.90848
8.05692
7.91303
6.37427
5.59022
4.61315
4.39294
4.21723
4.17191
4.08603
4.20267
4.02689
3.58479
3.1413
3.12402
3.38815
3.88656
4.90429
4.94276
6.74902
6.7087
6.62853
6.48352
6.34976
6.85356
6.74143
8.08885
8.44271
7.7326
6.94767
6.33152
4.59283
3.99987
4.04546
4.01493
4.08227
4.62215
4.86409
5.19021
5.43565
5.43306
6.25576
7.34679
7.2181
6.74411
6.71684
6.62075
6.51638
6.37722
6.31164
6.08288
6.02258
7.23884
7.57892
7.51836
6.39855
4.55059
3.69119
3.56671
3.68757
3.83569
4.44792
5.31394
6.36142
7.32446
7.98004
9.40744
9.50945
9.06891
6.7491
6.70665
6.65303
6.54176
6.46166
6.32843
6.17494
6.19589
6.10021
6.04838
6.02973
5.81393
6.00984
5.28346
4.25558
4.02497
4.71674
4.28798
4.63076
5.88979
6.74013
7.40461
8.08123
8.95528
8.95384
6.75156
6.70199
6.65604
6.53689
6.46705
6.28817
6.21135
5.58276
4.61416
4.17252
3.95103
3.88684
4.11948
4.86328
5.20003
5.42283
5.7934
5.1011
5.09114
5.82265
6.22964
6.28836
6.28088
7.20474
7.85481
6.75072
6.70481
6.64728
6.5503
6.44769
6.32405
6.19163
5.62705
5.47439
4.95789
4.46332
3.90958
3.81264
3.76935
3.76779
3.96817
4.27922
4.82093
5.08458
6.24304
5.86764
6.48296
6.73476
7.45103
7.68281
6.74799
6.70965
6.6421
6.5562
6.4474
6.32948
6.20418
6.07646
5.93308
5.85573
5.63013
5.43165
5.19965
5.18335
5.06269
5.16437
5.05548
4.97407
5.50041
6.48942
7.26366
8.11663
7.52823
8.09712
8.49707
6.73985
6.74055
6.73324
6.79402
6.84939
6.95957
6.98985
6.97843
6.93809
6.94103
6.97099
6.98395
6.93279
6.83734
6.76845
6.82204
7.05384
7.46502
8.04188
8.81714
10.0093
12.1368
13.8963
15.2746
15.075
6.7407
6.7454
6.72659
6.7828
6.92417
7.10021
7.09029
7.00913
7.00044
7.09054
7.32467
7.55055
7.69246
8.08675
8.70478
9.48718
10.3735
11.259
12.0323
12.6696
13.3324
13.4874
13.8786
13.5466
13.2381
6.74549
6.74542
6.73772
6.77746
7.02799
7.3844
7.32322
7.21512
7.17189
7.15513
7.52616
7.78242
7.86877
8.25827
8.91967
9.77022
10.6832
11.4169
11.9177
12.2069
12.3131
12.3485
11.8156
10.5184
10.556
6.75062
6.74428
6.74527
6.79148
7.00014
7.52435
7.71884
7.68765
7.46271
7.03508
6.90333
7.24523
7.61626
7.8823
7.73482
7.58668
7.66567
7.70433
7.57037
7.42394
7.32153
7.12571
6.79916
6.33446
6.59272
6.76074
6.72617
6.76653
6.83702
7.2618
7.21409
6.0555
5.8308
5.09417
4.19983
3.94795
4.14422
4.78471
5.75642
6.5651
6.7537
6.78541
6.95564
6.95432
6.80077
6.71678
6.67817
6.60875
6.45059
6.29605
6.75943
6.72808
6.77664
6.93708
7.59697
5.86962
4.81342
5.92092
2.84474
3.33491
3.67049
3.23658
2.60697
2.93593
4.44751
5.81995
5.97464
5.75169
5.68019
6.07139
6.54074
6.63021
6.58341
6.5853
6.43758
6.7586
6.72233
6.77165
6.92208
7.20089
5.05034
4.61346
2.69055
1.00367
1.81364
2.46638
3.18475
3.39904
3.27048
3.10198
3.79053
5.99928
6.6829
6.61337
6.58249
6.43409
6.74775
6.73623
6.74758
6.80556
7.02217
7.14876
7.72499
0.282017
1.7388
1.75046
1.78337
2.52834
2.59512
2.21633
1.99889
2.60403
5.44317
6.61467
6.53024
6.50115
6.35841
6.74431
6.73824
6.73085
6.7424
6.80877
7.32087
7.55913
0.232808
2.23887
1.49501
2.35458
3.44475
3.26659
2.65311
2.25108
2.98013
5.76479
6.55445
6.49837
6.50515
6.33932
6.74436
6.73829
6.72384
6.71876
6.74507
7.07444
8.5819
4.41631
3.07536
3.13447
2.18738
0.863325
1.38201
2.27331
3.9377
4.52712
4.06676
3.41487
3.17574
4.30603
6.2462
6.52442
6.47086
6.45164
6.31764
6.74578
6.73643
6.71885
6.71264
6.7326
7.0548
8.04493
8.46868
6.02884
4.6388
4.06625
3.64136
3.54357
4.8978
6.53029
6.56623
5.92001
5.27642
5.03049
5.34242
5.63375
5.779
5.9281
5.98522
5.94798
6.74801
6.73193
6.7161
6.70715
6.72059
7.15763
7.76671
8.44461
6.30886
4.10212
3.18003
3.08461
3.96944
5.66125
6.29055
6.07712
5.81033
5.40703
4.93093
4.70487
4.67475
4.71235
5.05538
5.47221
5.53528
6.74972
6.72681
6.71636
6.6986
6.69919
7.18408
7.63889
8.88773
8.06938
6.1371
4.94016
4.55238
5.14352
5.66563
5.58098
5.33484
5.4234
5.35337
5.02125
4.56231
4.61401
4.78832
5.1702
5.75308
5.80524
6.75009
6.72335
6.71876
6.69186
6.69121
7.30319
7.47567
8.90491
8.72133
7.69508
6.94572
6.92399
6.77219
6.47347
6.15341
5.9581
6.05382
5.93412
5.56427
5.33344
5.41701
5.55475
5.97272
6.45324
6.4147
6.74887
6.72387
6.71793
6.68779
6.68374
7.43769
7.1639
8.77472
8.95572
8.1371
7.73443
7.70915
7.70076
6.67881
6.21995
5.94187
6.18618
6.73011
6.88579
7.09677
7.44716
7.62511
8.18351
9.12028
8.89219
6.74372
6.73253
6.71215
6.69787
6.64587
6.71674
6.40102
6.55009
7.81967
8.07315
7.76095
7.85557
7.7192
6.92466
6.35295
6.3687
6.65927
7.12902
7.88618
8.70851
9.58057
10.4012
11.3261
11.8722
11.3727
6.74226
6.735
6.71061
6.67686
6.6719
6.5893
6.56642
6.6324
6.67144
6.55536
6.6521
7.1759
7.37189
7.44107
7.53765
7.73095
7.68195
7.51453
7.84146
8.33654
9.02677
9.98914
10.4951
11.5403
11.7628
6.74602
6.72652
6.72026
6.67507
6.66151
6.60166
6.58138
6.52673
6.32111
6.12542
6.01933
5.99079
6.10767
6.43284
7.05489
7.26793
7.91024
7.78453
8.57262
8.62412
8.92359
9.39429
9.61006
10.5146
11.0678
6.74501
6.72976
6.70973
6.69016
6.64392
6.62735
6.54054
6.55961
6.47678
6.25817
6.12242
5.89787
5.81063
5.64191
5.75146
5.74388
6.42344
6.94076
8.00669
8.50175
9.00507
9.50964
9.93504
10.5618
10.9216
6.74394
6.73133
6.70906
6.68744
6.6516
6.61514
6.56488
6.52232
6.47206
6.45609
6.3709
6.32778
6.29471
6.35605
6.39057
6.57837
6.7611
7.26329
8.29568
9.17174
9.96241
10.7616
11.01
11.4097
11.6234
6.7374
6.74637
6.7262
6.80752
6.8652
6.97486
7.01667
7.08815
7.17082
7.23653
7.32618
7.36395
7.29224
7.15083
7.06824
7.14885
7.4279
7.89017
8.52207
9.37531
10.5355
12.9218
14.3438
15.6029
15.5359
6.74259
6.73955
6.7433
6.80216
6.88736
7.05107
7.23225
7.36723
7.55467
7.78978
8.01607
8.11291
8.22155
8.59261
9.20985
9.99334
10.8666
11.7291
12.5045
13.1704
13.776
14.2009
14.491
14.0385
13.8388
6.74512
6.74298
6.74601
6.79916
6.93443
7.23936
7.90191
8.05543
8.18243
8.27676
8.35102
8.16072
8.15285
8.54131
9.20407
10.044
10.9224
11.6354
12.1505
12.4694
12.6267
12.7091
12.1729
10.7986
10.9577
6.74771
6.74509
6.75186
6.81286
6.9641
7.34484
8.13258
8.59644
8.59898
8.02123
7.7647
7.84994
8.08209
8.29553
8.2295
8.04005
7.91019
7.76307
7.59703
7.48351
7.39218
7.23888
6.86373
6.77027
6.8849
6.75255
6.74023
6.75678
6.83587
7.08062
7.59659
8.154
8.4481
5.69512
4.43966
4.19671
4.42545
5.17598
6.32278
7.50153
7.94597
7.82155
7.60379
7.36332
7.16551
7.06407
7.01651
7.00604
6.89691
6.79324
6.7543
6.73324
6.7817
6.87823
7.27474
7.70883
7.26683
5.61654
1.94956
2.83852
2.561
2.46928
2.62319
3.34596
4.99337
6.35365
6.48385
6.22945
6.20076
6.57464
6.89945
6.95461
6.96557
7.03271
7.01938
6.74979
6.73698
6.76561
6.86394
7.18876
7.56332
6.63753
3.70013
0.804863
1.69418
3.18913
4.054
3.9464
3.63884
3.59114
4.56847
6.51924
6.99593
6.98432
7.03955
7.01927
6.74478
6.73892
6.7464
6.81069
7.00174
7.78659
8.84394
0.362362
1.50972
1.83599
4.04244
5.03002
4.3905
3.50364
2.97537
3.68504
6.21822
7.01277
6.98697
7.04844
7.00113
6.7431
6.73908
6.73652
6.7675
6.88464
7.53238
7.83009
0.191443
1.3948
2.36563
4.90374
5.53858
4.74524
3.77057
3.25714
4.19495
6.4639
6.9938
6.98153
7.05243
7.00154
6.74342
6.73891
6.72888
6.75004
6.82038
7.30356
9.39183
4.82174
3.17628
2.93176
2.0615
0.747047
1.3216
3.09755
5.08629
5.43165
4.80329
4.12372
4.03653
5.31708
6.76098
6.95967
6.95701
7.01618
6.99161
6.7453
6.73633
6.72309
6.7408
6.79268
7.24537
8.49132
9.91182
7.213
5.42122
4.58842
4.26009
4.61542
6.43392
7.41614
7.2397
6.598
6.08764
6.06255
6.43936
6.6431
6.69143
6.78091
6.85813
6.85598
6.74813
6.73072
6.72075
6.73265
6.77595
7.31181
8.20341
9.41615
8.71876
7.17719
5.79426
5.63212
6.54542
7.66902
7.88255
7.65717
7.34495
6.92861
6.51521
6.30066
6.24583
6.25478
6.45521
6.68101
6.66543
6.75005
6.7251
6.72274
6.72211
6.75466
7.37239
7.96829
9.35069
8.88031
7.74108
6.87688
6.7955
7.17267
7.51475
7.38595
7.21846
7.1755
6.97554
6.57792
6.40293
6.37978
6.36871
6.57163
6.85193
6.82487
6.75004
6.72213
6.72712
6.71266
6.74968
7.51992
7.78376
9.31215
8.90574
7.96737
7.63769
7.64563
7.74277
7.7753
7.57741
7.46527
7.43315
7.26823
6.97334
6.91003
6.9874
7.00017
7.01461
7.0616
7.00998
6.74886
6.72295
6.72585
6.70718
6.74811
7.62021
7.38198
9.06547
9.11373
8.14693
7.83108
7.86652
8.17711
8.29869
8.02768
7.85851
7.89867
7.85568
7.70209
7.74488
8.02015
8.3764
9.07882
10.0594
10.2253
6.74383
6.73231
6.71703
6.71777
6.68537
6.81136
6.47996
6.87314
8.11696
8.2499
7.8816
8.05126
8.46145
9.02585
8.86638
8.90117
9.00573
9.24548
9.69478
10.3681
11.1613
12.0108
13.0627
13.1726
12.9717
6.74006
6.7391
6.70857
6.6993
6.70673
6.63548
6.67996
6.78696
6.84331
6.77936
6.99672
7.36802
7.67109
8.09333
8.66733
9.26264
9.47948
9.58084
9.97838
10.637
11.2181
12.1529
12.6523
13.3564
13.6381
6.74428
6.72847
6.7239
6.69617
6.68732
6.68188
6.64157
6.66026
6.6784
6.66434
6.66923
6.69549
6.91096
7.18003
7.88363
8.43647
9.04252
9.35827
9.95872
10.5374
10.9058
11.5111
12.1192
13.2769
13.7525
6.74394
6.7303
6.71585
6.70549
6.68552
6.67557
6.65059
6.6541
6.64177
6.63513
6.63286
6.63041
6.67914
6.74919
6.91905
7.06417
7.78097
8.6108
9.57513
10.3399
11.0612
11.6342
12.2135
13.1194
13.591
6.7432
6.73152
6.71521
6.7039
6.6873
6.67779
6.64955
6.64576
6.65086
6.63641
6.60333
6.72816
6.76643
6.90508
7.05907
7.28095
7.73437
8.91745
10.2336
11.0133
12.0547
12.6531
13.2539
13.672
13.9735
6.73838
6.7411
6.73749
6.76695
6.8504
6.90736
6.969
7.08751
7.17359
7.28972
7.41163
7.4556
7.37544
7.24714
7.20445
7.34018
7.66945
8.17006
8.83022
9.70512
10.8827
13.192
14.6469
15.8603
15.7612
6.74314
6.73694
6.74255
6.76845
6.84983
6.95322
7.11601
7.30197
7.6355
7.99452
8.3053
8.45727
8.59445
8.97539
9.60547
10.3871
11.2361
12.0578
12.8026
13.4781
14.0478
14.5332
14.7052
14.2421
14.2936
6.74438
6.7412
6.74245
6.77871
6.86647
7.03587
7.74051
8.07668
8.39163
8.59898
8.66626
8.45451
8.47435
8.85715
9.50991
10.3349
11.1658
11.8212
12.3101
12.6337
12.818
12.9305
12.4034
10.9705
11.2904
6.74579
6.74357
6.74714
6.79487
6.89348
7.12586
7.95272
8.60035
8.70685
8.4239
8.32397
8.34851
8.52083
8.54781
8.40087
8.18135
8.0126
7.83937
7.68457
7.57789
7.49
7.35064
6.99913
6.61216
7.30554
6.7473
6.74357
6.75088
6.8133
6.94527
7.26967
8.22992
9.44992
7.68819
5.82064
5.38194
5.78096
6.59359
7.49774
8.2341
8.40193
8.17669
7.85894
7.57298
7.36841
7.25916
7.21373
7.2037
7.14418
7.07728
6.74758
6.74114
6.75296
6.82291
7.01014
7.42754
8.94579
5.14434
2.8826
2.79233
3.06397
3.34807
3.91217
5.13975
6.71121
7.41583
7.26273
6.96282
6.8727
7.01222
7.11757
7.12238
7.14961
7.23499
7.26898
6.74539
6.73965
6.74998
6.81666
6.99438
7.49755
7.64336
5.50152
2.99295
3.64421
3.47087
3.10006
2.81358
3.8356
6.01317
6.48149
5.90921
5.30666
5.1956
6.02773
6.99064
7.14716
7.15902
7.23477
7.26654
6.74321
6.7386
6.74175
6.79312
6.93524
7.58396
9.27516
4.49844
3.50474
4.02447
3.64357
3.12824
2.74681
4.36698
6.9176
7.13054
6.19549
5.19371
4.74596
5.55255
6.90614
7.16854
7.17018
7.24373
7.26966
6.74246
6.7384
6.73368
6.75944
6.86635
7.50286
9.21858
3.45995
3.33826
3.48843
3.16582
2.75099
2.69314
5.01013
7.35113
7.38955
6.36493
5.34267
4.98903
5.89465
6.98059
7.15999
7.17045
7.24585
7.27458
6.74308
6.73806
6.72609
6.74781
6.817
7.29033
9.91139
5.90421
3.84662
3.4276
3.03712
2.79919
3.62624
5.87459
7.30524
7.13331
6.33675
5.64981
5.65013
6.5065
7.0881
7.14529
7.16364
7.24741
7.27597
6.74539
6.735
6.72059
6.73942
6.79053
7.25205
8.54908
10.0591
8.41205
6.44789
5.37036
5.30701
6.39363
7.80303
8.25871
7.99588
7.42494
6.99636
6.93682
7.06699
7.11003
7.09566
7.14437
7.24032
7.2639
6.74852
6.729
6.71937
6.73195
6.77602
7.37434
8.30151
9.47115
9.13933
8.31738
7.63396
7.60786
8.06906
8.43624
8.51842
8.34786
8.0238
7.64822
7.3322
7.1562
7.07585
7.03833
7.10756
7.24572
7.28239
6.75032
6.72344
6.72316
6.72243
6.7625
7.47205
8.1794
9.52392
8.9879
8.16952
7.90893
7.92435
8.04704
8.25668
8.22688
8.11583
7.93616
7.67664
7.40367
7.25381
7.1907
7.13788
7.22994
7.34934
7.30714
6.74969
6.72151
6.72923
6.71257
6.76043
7.63965
7.99183
9.54355
9.05848
8.06289
7.83838
7.89946
7.98948
8.17832
8.20663
8.15281
8.02999
7.84077
7.64361
7.55847
7.55867
7.54665
7.32212
7.47237
7.35742
6.74865
6.7224
6.72779
6.70747
6.75488
7.71248
7.57283
9.32546
9.28064
8.29726
7.95891
7.98734
8.16038
8.53521
8.77381
8.78977
8.62685
8.32008
8.10019
8.14882
8.45558
8.89918
9.77863
11.2853
11.1521
6.74433
6.73154
6.71686
6.71842
6.71022
6.82664
6.51902
7.16974
8.3956
8.59748
8.13423
8.25533
8.78273
9.57042
10.1196
10.3351
10.3762
10.5007
10.8675
11.4794
12.2505
13.0998
14.0455
14.1169
14.3183
6.74024
6.73983
6.70218
6.70975
6.70325
6.6399
6.7236
6.85326
6.88809
6.82748
7.1373
7.55384
7.82755
8.36441
9.13065
9.96616
10.3311
10.7162
11.408
12.1573
12.7436
13.7073
14.0973
14.7897
15.0805
6.74351
6.72957
6.72318
6.69735
6.6912
6.69447
6.65189
6.66791
6.75818
6.77648
6.80836
6.85879
7.17207
7.47004
8.16941
8.91717
9.51632
10.1286
10.8273
11.5663
12.0517
12.9009
13.7941
15.0982
15.5414
6.74383
6.73008
6.71661
6.70556
6.69339
6.67988
6.67066
6.68842
6.65006
6.71576
6.75797
6.81582
6.90466
7.02527
7.2533
7.53639
8.4607
9.43682
10.4605
11.3752
12.1774
12.9124
13.573
15.0209
15.613
6.7432
6.73128
6.71576
6.70472
6.6928
6.68822
6.66371
6.67354
6.69987
6.67966
6.6512
6.80345
6.86472
7.031
7.27586
7.56989
8.29873
9.87188
11.2292
12.1971
13.2295
13.8511
14.5494
15.0883
15.5583
6.73799
6.74091
6.73602
6.75642
6.83107
6.85583
6.95875
7.04482
7.14687
7.26479
7.36447
7.38193
7.30327
7.21722
7.23709
7.42954
7.79778
8.31724
8.9766
9.81593
10.9738
12.6552
14.8743
15.4644
15.6239
6.74301
6.73568
6.74087
6.75886
6.82226
6.9192
7.05837
7.22122
7.63606
8.05752
8.40115
8.63014
8.86629
9.29854
9.93008
10.6988
11.5145
12.285
12.98
13.6598
14.1652
14.624
14.6754
14.3185
14.5277
6.74377
6.73972
6.73927
6.76709
6.82521
6.95876
7.70198
8.10134
8.55322
8.83379
8.97853
8.91982
8.98987
9.34035
9.94331
10.7261
11.4842
12.0668
12.4925
12.7948
12.9822
13.1073
12.5891
11.1383
11.5368
6.74452
6.74199
6.74304
6.77842
6.85529
7.02128
7.89936
8.55604
8.71552
8.60691
8.60189
8.74691
8.86688
8.8559
8.67809
8.47275
8.30252
8.12108
7.95397
7.83881
7.74372
7.61903
7.31429
6.99837
7.57742
6.74494
6.7424
6.74675
6.78758
6.87454
7.09299
8.03952
9.12513
9.37697
8.45064
7.99049
8.12877
8.39337
8.61775
8.69271
8.56709
8.30895
8.00712
7.73819
7.55275
7.45487
7.40852
7.37911
7.27513
7.24851
6.74453
6.74101
6.74846
6.7974
6.90825
7.19496
8.55603
9.68429
6.03073
5.09516
5.20644
5.92752
6.94931
7.91772
8.44279
8.38853
8.0226
7.64969
7.418
7.33697
7.31299
7.28864
7.29282
7.32593
7.34842
6.74337
6.73867
6.74519
6.79181
6.91372
7.2992
9.22677
8.43095
5.68526
5.01709
4.81217
4.91318
5.77078
7.47748
8.53406
8.32125
7.65277
7.05934
6.86132
7.09616
7.30005
7.30407
7.29774
7.32104
7.33682
6.74228
6.73736
6.73829
6.76896
6.88634
7.38963
10.0345
10.0284
6.3639
5.45814
5.08171
4.88026
5.58041
8.02805
9.11469
8.70427
7.77474
6.94925
6.63572
6.96477
7.29422
7.31838
7.30565
7.32614
7.34014
6.74194
6.73752
6.73029
6.75434
6.84255
7.35156
10.0007
6.78268
5.59182
5.07559
4.70619
4.62991
5.91481
8.39139
9.25992
8.82331
7.85427
7.02746
6.75128
7.05367
7.29931
7.31309
7.30595
7.3293
7.34477
6.74302
6.73686
6.72301
6.74358
6.80502
7.23819
9.22955
9.7303
6.4149
5.19915
4.91889