/*--------------------------------*- C++ -*----------------------------------*\
  =========                 |
  \\      /  F ield         | OpenFOAM: The Open Source CFD Toolbox
   \\    /   O peration     | Website:  https://openfoam.org
    \\  /    A nd           | Version:  6
     \\/     M anipulation  |
\*---------------------------------------------------------------------------*/
FoamFile
{
    version     2.0;
    format      ascii;
    class       volScalarField;
    location    "45";
    object      p;
}
// * * * * * * * * * * * * * * * * * * * * * * * * * * * * * * * * * * * * * //

dimensions      [0 2 -2 0 0 0 0];

internalField   nonuniform List<scalar> 
230684
(
44.2967
43.7159
42.45
39.8097
32.6229
20.281
13.7592
15.8148
16.6023
15.3044
13.0431
10.27
8.2002
7.94915
8.81847
9.10548
8.51087
7.3533
5.98113
4.6065
3.37448
2.3003
1.40129
0.417504
0.105052
45.8378
45.7053
45.0059
45.4675
36.712
17.811
2.84147
16.429
18.3824
16.1608
13.6184
9.64276
6.61271
6.64333
8.93354
9.73188
9.34362
8.17336
6.69377
5.20727
3.7863
2.45415
1.31533
0.188855
-0.0992545
48.2024
48.4702
49.023
54.2415
71.65
-4.85241
1.52082
12.3874
19.4116
18.0244
16.693
8.3032
2.78657
2.52279
8.25136
10.2164
9.97619
8.68609
7.165
5.761
4.10756
2.29096
1.10225
0.261387
-0.0134353
50.8557
50.6734
52.8213
46.2785
63.7288
-10.6838
-0.80687
13.7826
15.2702
17.4504
30.7076
-25.1547
-18.2716
0.0545441
4.74624
13.468
11.8964
9.61498
7.90582
6.25184
4.44257
2.28745
0.897592
0.215068
-0.0118633
53.7093
54.5287
56.8688
59.0433
49.4039
6.90495
5.91134
3.03605
4.0792
8.5206
27.3815
-61.4286
-19.6287
-6.07718
5.80643
13.7278
12.2174
10.4834
8.56216
6.77272
4.80213
2.4702
1.00734
0.124807
-0.0015988
56.0213
57.3978
61.6983
72.2459
80.3668
22.3466
27.0883
-5.28906
-24.9564
-4.25919
4.92089
-11.2011
-7.32151
2.10336
6.54938
12.5912
12.6614
10.8912
9.17485
7.25639
5.22328
2.58258
0.913452
0.0254071
-0.103393
56.6656
57.8135
62.9266
77.0583
89.9157
51.792
54.9188
43.8982
-10.4612
2.0698
8.80344
-0.869283
-2.79325
3.43226
11.6291
11.2115
10.861
9.80388
8.39807
6.89724
4.91981
2.45266
1.05239
-0.0728568
-0.212748
55.9058
56.457
59.675
66.1641
66.4993
70.383
80.049
44.6052
-9.90271
0.334144
7.88947
2.70936
-2.27684
-1.59485
4.36687
14.7662
18.282
15.7672
12.1371
8.84496
5.63415
2.84692
0.861234
-0.132347
-0.193242
54.6652
54.9423
57.0343
60.6192
63.7947
70.1065
81.2937
-59.0146
-12.2263
0.689648
9.49517
15.5674
-7.51623
-2.19081
7.84236
22.1701
23.7161
18.8138
13.7373
9.64634
5.82534
2.63722
0.563259
-0.232849
-0.259715
53.2437
53.4276
55.1357
58.2072
61.6382
64.7712
65.76
15.2584
-19.5045
-4.49953
0.768185
7.74812
0.759302
3.66798
0.640067
5.87983
16.1952
16.1113
12.1592
8.43801
5.0459
2.32936
0.462067
-0.244121
-0.297358
51.6527
51.755
53.3727
57.274
70.3157
58.6906
74.4072
10.887
3.41373
9.6604
3.61622
8.56615
0.76361
0.937749
3.44894
6.96735
13.194
15.2372
10.5672
6.76375
4.28976
2.29926
0.772555
-0.342763
-0.51073
49.9275
49.8586
50.9644
53.1779
55.9269
64.6146
41.9858
54.2918
7.96133
22.2222
12.0221
10.1253
18.4071
12.708
9.92161
8.55994
12.2392
15.281
4.77561
4.80128
1.72948
2.62424
1.96022
0.980091
0.403415
48.3003
48.0947
48.6417
49.2397
49.2842
47.8831
44.6777
52.0206
27.0637
31.3575
22.9728
-5.14858
17.6433
24.744
22.6497
33.1658
9.38275
18.8051
23.2956
-1.67046
-0.499247
1.68698
0.961529
0.374195
0.381626
46.9388
46.6594
46.8378
46.6584
45.868
44.4512
42.5922
39.8417
37.2615
37.6868
38.4347
17.7336
-6.68296
17.6614
16.3807
3.55531
14.9729
26.2475
40.879
-6.37265
-7.51018
-5.80638
2.34987
1.29748
0.59107
45.8943
45.5848
45.5499
45.0931
44.2827
43.2823
42.1277
41.1369
41.1784
43.9234
55.2297
64.6445
-14.1623
8.37176
13.7025
19.4265
18.7712
22.3696
15.5888
-3.75951
-1.58805
-2.98528
5.41058
1.41119
1.54965
45.1648
44.8613
44.6947
44.07
43.4378
42.7836
42.1479
41.6736
43.4379
48.7074
61.3256
74.0751
-4.76423
11.8464
23.4128
17.2599
20.0969
26.449
23.5715
-5.56131
-0.327889
0.378892
-1.3144
3.03279
0.604502
44.7079
44.4319
44.1514
43.8902
43.7224
43.7501
42.944
39.3783
40.5668
46.1494
52.6241
66.7516
-2.50712
16.207
18.3377
19.1032
30.1271
27.8758
10.4176
2.79785
3.87351
6.57081
3.83196
3.84163
1.67019
44.4415
44.2109
44.0883
44.141
44.6505
45.7806
47.8174
33.8293
38.6393
40.6909
40.362
35.6595
18.6133
16.3218
28.7894
22.7145
18.4106
44.9658
-40.3578
-12.9271
3.62464
11.5451
8.05754
5.06934
2.40132
44.2626
44.0341
43.9111
43.9003
44.1118
44.7911
48.0438
28.2647
38.707
40.9694
43.3248
49.6401
13.3726
32.6081
26.4422
27.3842
33.8563
48.8889
-41.0609
-9.72268
11.9896
11.1105
9.27174
6.02992
3.09436
44.1616
43.92
43.7532
43.6166
43.446
43.193
42.8071
39.4801
37.4771
36.8476
35.0433
31.9263
25.9257
27.5408
26.2303
24.3479
24.4208
19.2808
-3.74822
3.96134
10.2067
9.71203
7.50695
4.70648
2.41792
44.0232
43.4946
42.0662
38.8967
32.3963
21.074
14.7243
15.9321
16.3962
15.0929
12.9461
10.3492
8.47417
8.21181
8.83063
8.89376
8.17294
6.95854
5.58373
4.24374
3.06912
2.06457
1.25605
0.313762
0.0198459
45.4488
45.3236
44.5554
44.3615
36.9584
19.7381
-14.2428
17.0303
18.6514
16.2334
13.6813
9.89114
6.98748
6.78511
8.56154
9.19182
8.77737
7.64949
6.26968
4.89948
3.57787
2.31122
1.27475
0.306314
0.0436959
47.6718
47.9091
48.2625
52.3788
78.5089
10.9505
19.2823
17.5171
16.0394
8.03616
3.0261
2.57376
8.16775
9.77974
9.5196
8.31978
6.96151
5.65115
3.94905
2.14335
0.882184
0.41921
0.15982
50.228
50.032
52.3871
49.5281
64.8643
14.4118
14.8481
15.7949
28.8535
-17.8451
7.44249
11.539
10.5262
8.83092
7.30868
5.84778
3.98272
1.88963
0.595156
0.264565
0.0523874
52.9412
53.7655
55.5481
56.8643
46.988
4.54613
8.34175
11.001
5.37138
6.20275
21.4943
4.3375
11.6675
11.1415
9.41464
7.81837
6.19092
4.25107
2.0125
0.59415
0.0813028
-0.04126
55.1593
56.5788
60.3159
69.8164
87.0317
-40.0738
-17.4094
-2.20209
-10.7418
-8.58651
0.326713
12.3493
12.0794
10.3069
8.70629
6.98673
4.82706
2.24479
0.58195
0.0249564
-0.106629
55.8962
57.1517
61.6674
74.6123
103.336
12.2
-5.44956
3.20808
10.0003
11.3824
11.1913
10.1382
8.73457
7.26994
4.846
2.30676
0.408399
-0.135222
-0.225237
55.3332
56.05
59.0719
64.9284
64.8028
69.6174
80.6873
94.2817
-10.744
-12.9282
-5.78345
7.35147
13.2392
12.6124
10.2319
7.62611
4.79427
2.25503
0.215534
-0.247737
-0.243406
54.2262
54.6666
56.7431
60.0592
63.1166
69.5229
83.1333
-9.73968
-10.2967
-1.16082
15.0748
18.6502
15.6929
11.8536
8.40241
4.96482
2.08057
0.0841818
-0.254948
-0.243086
52.8739
53.1944
54.883
57.6951
60.709
63.5471
62.8841
-0.130652
-23.2141
-1.69881
1.55773
0.667526
-2.01645
1.72013
-0.8661
7.2333
14.7177
14.4311
11.277
7.8795
4.58807
1.90516
-0.0108268
-0.180513
-0.216869
51.3339
51.5502
53.0871
56.3918
66.3134
59.7554
73.3353
1.65431
-1.28502
2.35737
4.5309
7.0452
11.1875
13.799
10.1737
6.35406
3.82236
1.7495
0.127353
-0.239508
-0.367049
49.6727
49.71
50.7687
52.6672
54.549
57.5146
47.4495
47.5091
7.34045
4.13296
15.8841
9.73205
6.26157
2.04575
2.18931
0.98968
0.457759
0.0902258
48.102
47.9916
48.5267
49.0361
48.8405
47.101
43.8589
59.3338
-4.06311
13.2943
23.8185
16.1679
27.4332
3.56116
18.9876
-4.51169
-2.07993
1.20413
0.58366
0.19854
0.275655
46.7789
46.5864
46.7626
46.5847
45.7527
44.3234
42.4082
39.5764
36.5654
37.059
35.677
17.895
-9.78502
15.7577
15.64
-1.46984
16.1847
25.2494
64.6294
-5.74195
0.513103
0.889989
0.634892
45.7556
45.5277
45.4957
45.0717
44.2384
43.2364
42.1143
41.103
40.5296
42.6073
51.9044
85.1578
1.12836
14.8283
19.5013
18.8791
21.4884
16.8244
-2.5862
-1.2497
0.270656
3.35768
1.2409
1.22363
45.0335
44.8095
44.6466
44.0103
43.3433
42.651
42.0538
41.9161
43.6177
47.5478
57.8747
96.7833
10.4732
22.2066
25.1641
28.4015
-2.7786
3.03708
0.856868
44.5771
44.386
44.1126
43.8169
43.5972
43.5538
42.8624
39.4614
40.4751
45.0825
49.0719
67.4845
17.2729
13.4021
30.5865
2.87175
0.571508
4.31913
6.33305
4.19927
3.33751
1.18302
44.3062
44.1635
44.0373
44.0305
44.4325
45.397
47.6319
32.7566
40.2877
40.1698
39.8771
35.7463
20.1467
13.0954
29.4662
10.9227
64.8735
-15.2085
3.58636
11.2609
7.49245
4.24963
1.63354
44.1297
43.9905
43.8734
43.8176
43.9292
44.4372
47.7875
17.2947
40.2856
40.362
42.1502
53.9328
31.2038
26.2024
26.1959
31.322
68.0762
-11.6729
11.8218
11.0887
8.25826
4.89462
2.28746
44.0329
43.8833
43.7333
43.5752
43.3891
43.0966
42.5607
39.3734
37.5802
36.7904
34.7978
32.0283
26.7628
27.2669
26.0929
23.6814
23.2461
19.401
1.95407
4.39274
10.3577
9.77972
7.30645
4.37253
2.29347
43.608
43.0481
41.3387
37.6893
31.7653
22.264
16.8323
16.5704
16.4104
14.9182
12.8605
10.5751
8.91694
8.4945
8.75838
8.59569
7.79403
6.57316
5.2484
4.02437
2.95115
1.96874
1.16911
0.27866
0.00103323
44.8921
44.6483
43.5984
41.7013
32.1226
19.4503
12.2934
15.5902
17.3103
15.6431
13.418
10.2338
7.80854
7.51514
8.56476
9.00807
8.50098
7.35
6.00113
4.66563
3.37317
2.07563
1.1212
0.178113
0.0595455
46.9424
46.9587
46.7221
47.4039
40.4587
0.262938
11.368
13.3014
17.0659
15.8374
14.0346
8.0065
4.45333
4.7177
8.09296
9.23882
8.99944
7.96614
6.67635
5.32073
3.66136
1.87584
0.484551
0.207293
0.158481
49.3777
49.6596
49.7794
48.8374
45.2484
-3.83735
7.902
13.2327
13.1301
12.9951
16.2575
-6.84688
-1.89465
-2.14122
6.67967
9.38867
9.21413
8.22669
6.93503
5.49381
3.65617
1.64143
0.134018
0.0977777
0.0409201
51.9221
52.4839
53.367
53.2209
42.5747
14.336
13.3892
10.2199
-1.50681
-1.41565
8.06159
-11.673
-5.14605
1.08777
5.84793
9.64074
9.72765
8.63501
7.35725
5.79056
3.89588
1.71962
0.102241
-0.0375658
-0.0751034
54.0568
55.1469
57.7892
63.2552
67.2353
-53.7254
-29.0003
-10.9012
-8.03164
-6.32535
1.5717
6.85905
10.4427
10.4919
9.31607
8.04799
6.44168
4.31928
1.95445
0.0264146
-0.129704
-0.148396
54.9121
55.9529
59.3793
67.3358
69.9306
25.55
-12.6107
0.758278
9.2819
11.679
11.2114
10.0567
8.65634
7.05341
4.68956
2.07278
-0.264505
-0.296937
-0.24698
54.5823
55.2595
57.8242
62.0136
61.5102
66.9872
80.3033
93.2054
-18.1549
-12.573
4.51016
13.7402
14.6561
12.5525
9.91731
7.55267
4.76635
1.94953
-0.446073
-0.378475
-0.271827
53.6522
54.1095
56.0141
58.7326
61.4527
67.956
83.0576
-6.42028
-10.0328
-3.34832
7.52708
16.3629
17.0812
14.0796
10.7715
7.9021
4.74573
1.74623
-0.497382
-0.378903
-0.272063
52.4051
52.7362
54.2892
56.5086
58.6601
60.663
56.0588
-6.52932
-11.0564
4.37076
2.37046
-2.63632
-6.53817
0.835729
5.16726
10.3792
13.1245
12.6721
10.2086
7.43806
4.38624
1.56635
-0.591021
-0.365886
-0.268497
50.9454
51.1624
52.4971
54.6325
56.7133
55.6968
56.5384
-1.08424
9.57754
8.11245
7.32242
-0.255147
1.97809
5.01088
7.32681
8.17934
10.3908
12.1608
9.62204
6.34922
3.75245
1.40063
-0.547708
-0.334107
-0.352282
49.3726
49.4309
50.3482
51.5521
51.9232
50.0327
42.6749
31.1838
19.874
1.59108
-0.564405
0.558624
10.2315
14.1307
15.0922
12.2765
6.174
13.0879
8.08652
3.62209
2.69683
1.50987
-0.0879654
-0.0366761
-0.122662
47.8826
47.8106
48.2825
48.5182
47.8869
45.8142
42.1548
35.3696
28.4959
40.5595
4.50155
3.76182
16.6769
20.0861
17.5184
17.5283
9.27895
18.401
4.68199
-1.39061
0.873275
0.693695
-0.39427
-0.232982
-0.0278728
46.6176
46.4763
46.6308
46.3532
45.4273
43.9527
41.791
38.2367
35.3577
34.8179
31.0714
17.8142
7.21858
15.3652
16.3914
14.734
15.4159
18.6965
13.0743
-1.01721
2.08788
-0.50009
-0.507635
0.109318
0.229728
45.6299
45.458
45.4229
44.9497
44.0736
43.068
41.9029
40.4988
39.722
40.675
43.1396
28.8023
-2.96575
9.62393
17.2576
18.3762
17.7836
18.1244
12.8041
3.0357
2.09223
-0.090558
-0.680509
0.801711
0.549944
44.9253
44.7583
44.5907
43.8678
43.1195
42.3405
41.9616
42.5148
43.7639
45.4109
46.7277
26.8504
4.80358
16.3186
23.0955
20.2108
18.3967
20.5327
12.9997
4.51219
4.22107
2.37138
1.26274
1.88965
0.583965
44.4758
44.3399
44.0422
43.6771
43.3439
43.0823
42.4816
40.1906
40.6078
42.1475
43.942
33.7926
7.50721
20.0548
25.6765
19.3975
19.1591
21.2922
3.16316
3.00411
5.84666
6.13317
4.16206
2.78163
0.861787
44.2066
44.1166
43.9616
43.8523
43.9903
44.4756
45.4439
35.0499
40.1823
39.0587
37.5328
32.7012
22.9875
24.4201
24.6554
22.4053
23.349
26.0027
-11.5487
-0.521828
7.49129
8.94812
6.0855
3.60611
1.28504
44.0335
43.9493
43.8078
43.6721
43.6009
43.5745
44.7087
24.3494
39.9237
39.4645
39.5305
32.8839
24.3404
27.2989
25.4881
24.0253
25.2058
20.3256
-14.8721
0.714548
9.61694
8.9713
6.44678
3.83667
1.90614
43.9407
43.8505
43.6879
43.4817
43.2199
42.7837
41.9843
39.2903
37.6833
36.6708
34.5464
31.3925
27.6876
26.7102
25.4531
22.8171
21.2084
14.3099
2.19945
6.09119
10.4059
9.0388
6.53887
3.817
2.216
43.098
42.4761
40.5528
36.7173
29.977
22.3077
18.116
17.0811
16.2651
14.7021
12.8209
10.8494
9.35903
8.78105
8.71509
8.33666
7.44464
6.23169
4.99157
3.85474
2.82233
1.82811
1.02433
0.208629
-0.0378539
44.2384
43.8377
42.5082
39.6009
31.8326
21.3983
16.9006
16.3329
16.5586
15.14
13.1461
10.5792
8.63148
8.25858
8.73284
8.89704
8.23882
7.03309
5.70107
4.40012
3.08355
1.78025
0.891997
0.00475403
0.0557423
46.1003
45.8656
44.9976
43.2144
34.3441
16.4812
15.1986
15.1577
15.5136
14.2511
12.329
8.46309
6.19987
6.44486
8.18632
8.87857
8.57546
7.55525
6.27862
4.91901
3.3303
1.60172
0.187113
0.0225764
0.165004
48.3685
48.3008
47.728
45.6069
37.4946
17.2126
14.5907
13.8962
11.2851
10.0624
10.0281
2.91342
1.93104
3.3142
6.91011
8.54064
8.51957
7.71902
6.5206
5.11078
3.36561
1.38617
-0.236824
-0.0448107
0.03927
50.7518
50.9558
50.9999
49.4201
39.5298
21.3337
18.4093
11.8518
-3.40468
-5.20583
0.518629
-2.03027
-1.23709
2.95387
6.46901
8.57069
8.70346
7.98102
6.89072
5.39289
3.58372
1.49564
-0.289517
-0.178849
-0.108488
52.7892
53.3956
54.7343
55.9261
45.569
22.0007
34.6794
2.22793
-44.6635
-30.1352
-14.098
-6.82967
-3.90654
2.70357
7.46799
9.37916
9.32699
8.5296
7.38095
5.92495
3.97279
1.70687
-0.408167
-0.302962
-0.191647
53.7627
54.424
56.4999
59.3053
49.773
47.8648
63.9179
66.7213
-11.6428
2.39059
10.0242
11.6326
10.7916
9.58955
8.14598
6.62618
4.50464
1.83156
-0.693267
-0.447711
-0.274339
53.678
54.1741
56.0445
58.5099
58.2178
64.7195
81.9803
96.5362
-15.7651
1.00085
14.0104
16.0766
14.1607
11.7443
9.32059
7.43756
4.92419
1.77542
-0.880535
-0.510157
-0.305819
52.9489
53.3068
54.8576
56.9113
59.1731
65.3883
80.6831
-9.11
-10.1075
2.61191
12.8541
15.9233
14.8328
12.3166
9.6835
7.58456
4.79843
1.60924
-0.911433
-0.522673
-0.30789
51.8352
52.0793
53.3553
54.945
56.2271
57.0423
49.7303
-2.66754
-3.6134
2.62261
1.87063
-4.28115
-7.25346
2.27208
8.91677
11.3084
11.9241
11.0893
9.11624
7.0673
4.28345
1.38016
-0.982809
-0.540515
-0.312375
50.4821
50.6177
51.6482
52.8373
53.0944
51.2738
40.6817
13.4728
11.7076
9.99915
7.19468
3.92408
4.90688
8.67042
10.1723
9.92821
10.1738
10.5473
8.77415
6.24133
3.68925
1.16746
-1.04856
-0.550913
-0.371385
49.0207
49.0311
49.7206
50.2735
49.699
47.0441
38.8974
27.8817
24.3805
18.9386
10.857
6.24752
11.0874
13.8133
13.8189
11.7301
9.83343
10.9659
8.16312
4.76596
3.00931
1.03107
-0.989907
-0.500842
-0.293414
47.6316
47.545
47.888
47.8324
46.8171
44.6027
40.3951
33.8456
28.9859
26.5876
15.0225
12.7534
15.7848
17.2557
16.0074
14.2445
11.9591
13.1529
8.40893
3.15534
2.42402
0.771085
-1.21501
-0.513413
-0.201387
46.443
46.3071
46.3982
46.0087
44.9719
43.4414
40.9499
37.3993
34.7294
32.7586
28.5131
20.7549
14.7166
16.4631
16.6177
15.5297
14.7221
14.4637
9.85187
3.65005
2.85385
0.487641
-1.37655
-0.229529
0.00826613
45.5038
45.3463
45.2814
44.7513
43.8402
42.8174
41.5116
40.0929
39.4268
38.9701
37.1515
26.0563
12.5972
15.6432
18.3416
18.1639
17.0557
15.7157
11.156
5.41462
3.34885
0.983356
-0.828015
0.294116
0.258916
44.8249
44.6749
44.4855
43.7008
42.8749
42.0061
42.0253
43.1174
43.5799
43.2656
40.8149
28.2646
17.0285
19.9676
22.0612
20.8535
19.3279
17.8582
12.13
6.51612
4.67162
2.65052
1.63761
1.39875
0.453085
44.3862
44.2653
43.942
43.5146
43.0854
42.6505
41.9567
40.2507
40.6722
40.7607
37.8333
30.3176
22.4794
23.3149
22.955
20.9622
19.4803
17.7198
8.52178
6.27245
6.82965
5.65531
3.79445
2.56312
0.754656
44.1213
44.043
43.853
43.6424
43.5254
43.481
43.012
37.4795
38.3386
38.358
36.0309
30.8925
25.5206
25.2286
24.4945
22.4744
20.3719
17.8223
3.08593
5.74689
8.02724
7.7424
5.65974
3.4809
1.30928
43.9525
43.8826
43.7124
43.4957
43.2483
42.8057
41.6607
37.6276
38.6944
38.2979
35.8607
31.3867
27.0853
26.2981
25.0265
22.9283
20.0576
16.3028
1.40578
6.31608
8.69727
8.21478
6.11853
3.6583
1.99125
43.8634
43.7911
43.6104
43.3556
43.0123
42.4488
41.516
39.4726
37.8661
36.6718
34.545
31.4444
28.12
26.531
24.9528
22.3068
18.8145
12.9885
6.84527
7.45689
9.45243
8.29959
6.17283
3.61852
2.35977
42.5642
41.9023
39.8743
36.145
30.3717
23.9331
19.7032
17.7057
16.2834
14.6529
12.9224
11.202
9.81544
9.08327
8.70269
8.10003
7.12709
5.9414
4.76832
3.68815
2.67908
1.67869
0.883227
0.137089
-0.0778827
43.5705
43.0584
41.5519
38.3201
32.0378
24.0976
19.3905
17.3349
16.3727
14.8612
13.0404
10.9877
9.42611
8.92328
8.94722
8.78254
7.94391
6.69697
5.39208
4.10487
2.78846
1.51105
0.686294
-0.138648
0.0254018
45.2505
44.8386
43.5461
40.7687
33.623
23.3604
18.8713
16.6112
14.9887
13.3217
11.5246
9.10132
7.6172
7.64451
8.40718
8.68812
8.21197
7.15926
5.8751
4.55724
2.9897
1.36947
0.00438653
-0.099842
0.139433
47.3411
47.049
45.9671
43.1342
35.8742
24.6427
19.269
15.2326
10.7873
8.60654
7.87832
5.41913
4.68435
5.6819
7.41485
8.2705
8.09592
7.26518
6.08807
4.73679
3.07203
1.17291
-0.467825
-0.149694
0.000888364
49.5649
49.4883
48.9106
46.52
38.8854
28.1393
23.2649
13.7955
-1.96453
-4.93166
-0.965499
0.463961
1.83495
4.74791
7.16555
8.28675
8.23976
7.52558
6.42694
5.02624
3.28558
1.31046
-0.544471
-0.295872
-0.151605
51.4992
51.7245
52.0643
51.139
43.6918
35.1767
38.63
11.7458
-34.6894
-23.1461
-8.9001
-3.87031
-1.59423
3.94299
7.95018
9.00422
8.7414
7.93324
6.81547
5.43842
3.70147
1.50623
-0.668916
-0.425306
-0.239638
52.57
52.9101
53.9381
54.4262
49.724
50.4779
64.5877
79.8626
-6.60933
4.23261
10.2938
11.2978
10.1627
8.85534
7.50013
6.15928
4.28151
1.64454
-0.907298
-0.542171
-0.311092
52.7086
53.0139
54.2307
55.5256
55.8463
61.8589
78.5277
100.013
-11.4584
6.17835
13.8197
14.1639
12.1388
10.2217
8.36128
6.92404
4.83611
1.68627
-1.06539
-0.598464
-0.344316
52.1791
52.4096
53.5603
54.9444
56.6077
61.7406
75.4297
-12.1688
-10.6555
4.36839
12.8469
13.8497
12.4159
10.5516
8.53927
7.01759
4.68843
1.56612
-1.10302
-0.621063
-0.352361
51.2115
51.348
52.308
53.2909
53.7788
53.5224
46.1414
1.24947
-0.47868
3.62489
3.46511
-6.48034
-5.12064
5.48733
10.9046
11.5168
10.9285
9.81657
8.16971
6.62661
4.14383
1.31257
-1.16249
-0.652225
-0.361537
49.9808
50.0225
50.7517
51.2577
50.6512
47.9674
38.2991
20.5917
13.8442
11.6238
8.88255
6.17834
7.61555
10.9286
11.7043
10.9655
10.3067
9.64937
8.13505
6.05507
3.60677
1.07482
-1.29124
-0.692202
-0.393423
48.6423
48.5908
49.0508
49.0941
47.9449
44.984
38.0126
28.6429
23.3891
19.5468
14.5083
11.6428
13.2556
14.4073
13.8476
12.2334
10.832
10.1736
8.06197
5.41843
3.17559
0.862958
-1.40637
-0.719673
-0.36506
47.3633
47.2482
47.4514
47.1361
45.8465
43.5175
39.2845
33.6168
29.1966
25.5949
19.8741
16.9812
16.9147
16.9677
15.8273
14.0673
12.3821
11.3617
8.3635
5.0349
3.11013
0.780537
-1.5897
-0.678666
-0.304389
46.2595
46.1156
46.1364
45.6316
44.5062
42.912
40.2611
37.0316
34.4232
31.8101
27.8078
22.4908
18.5218
17.9688
17.2837
15.887
14.4079
12.8146
9.31301
5.40783
3.38332
0.799897
-1.5553
-0.423993
-0.141168
45.376
45.2203
45.123
44.5304
43.5943
42.545
41.1942
39.9822
39.2279
37.6985
34.4473
26.9476
19.8037
19.2391
19.3995
18.3278
16.6931
14.5372
10.6356
6.43504
3.8747
1.31788
-0.815421
-0.00767147
0.0617989
44.7274
44.5825
44.3752
43.5427
42.6706
41.7782
42.1625
43.5076
43.2947
41.7811
38.3553
30.408
22.9484
22.5497
22.5723
21.1728
19.1417
16.4762
11.8325
7.43212
4.91824
2.64125
1.35118
1.04327
0.301243
44.3023
44.184
43.8432
43.3716
42.8909
42.4366
42.0167
41.0439
40.7232
39.8928
36.9673
31.2808
25.4071
24.2984
23.6103
21.2781
18.6602
15.2556
9.52807
7.14639
6.59843
5.28928
3.48346
2.30775
0.654696
44.0424
43.9636
43.7451
43.4559
43.1563
42.7516
41.7467
39.1657
38.4666
37.916
35.5357
31.2528
26.9243
25.5666
24.2754
21.8614
18.9873
14.6807
7.60915
6.78177
7.66185
7.06865
5.24163
3.17243
1.28464
43.8781
43.8096
43.6156
43.3354
42.9723
42.3965
41.3693
39.3315
38.4712
37.6386
35.4036
31.7071
28.02
26.3472
24.7306
22.2592
18.9619
13.7161
7.35011
7.15039
8.32538
7.63704
5.70171
3.31541
1.96052
43.7929
43.7247
43.5284
43.2321
42.8248
42.1967
41.2469
39.5714
38.0355
36.6389
34.5067
31.5848
28.5429
26.5113
24.6075
21.9101
18.452
13.749
8.91911
8.19051
8.92158
7.88834
5.96158
3.42759
2.42137
42.0631
41.3871
39.3359
35.7714
30.7487
25.2012
20.9171
18.2653
16.4061
14.7034
13.0764
11.5146
10.1828
9.31487
8.67803
7.88643
6.85728
5.6982
4.57187
3.53134
2.53807
1.53677
0.753929
0.0659375
-0.117327
42.9554
42.3839
40.7875
37.546
32.2826
25.8923
21.0718
18.2155
16.4758
14.7963
13.0927
11.3868
10.05
9.41776
9.08204
8.60888
7.6281
6.37675
5.09615
3.82971
2.52403
1.2865
0.520661
-0.252147
-0.0135244
44.4758
43.9645
42.4358
39.4225
33.7007
26.4474
21.2995
17.7282
15.0365
12.9992
11.3212
9.67421
8.62528
8.44172
8.63949
8.55333
7.90708
6.81523
5.54347
4.26156
2.6775
1.17304
-0.106757
-0.186091
0.102374
46.4039
45.9833
44.6003
41.5681
35.6638
27.9551
22.097
16.5597
11.2711
8.52971
7.60898
6.65282
6.38804
6.94256
7.79258
8.13576
7.74289
6.8937
5.7153
4.44253
2.81357
1.01789
-0.596199
-0.240063
-0.0461885
48.4775
48.2248
47.2331
44.5803
38.8029
31.5194
25.6493
15.0267
0.947808
-2.19634
0.423681
2.43483
3.97818
6.06834
7.67925
8.24385
7.98291
7.16795
6.02118
4.73038
3.04425
1.13907
-0.687926
-0.376311
-0.195998
50.3158
50.2933
49.9768
48.3021
43.4518
38.785
37.8209
13.9609
-32.2257
-21.354
-7.05055
-2.12847
0.800386
5.11804
8.1084
8.72307
8.31506
7.44989
6.35406
5.04973
3.45094
1.3054
-0.791137
-0.496813
-0.284509
51.4524
51.567
51.8785
51.4453
49.0008
49.7107
57.9435
73.1322
-4.68948
4.40849
9.40462
10.1308
9.19643
8.05745
6.85683
5.59224
3.93213
1.44038
-0.975333
-0.588225
-0.34627
51.7685
51.9131
52.5837
53.1063
53.3959
57.3902
67.3811
86.3453
-9.22196
4.64708
11.2037
11.7325
10.3515
8.92443
7.4134
6.11793
4.30953
1.53607
-1.08642
-0.639404
-0.379167
51.4156
51.5241
52.2764
53.0298
53.8721
56.8417
64.7805
-14.4354
-9.85651
5.02244
11.6356
12.0196
10.7161
9.22207
7.56175
6.29206
4.23415
1.47428
-1.12938
-0.669444
-0.393147
50.5912
50.6261
51.265
51.6887
51.4351
50.1192
42.5526
6.72078
2.85019
5.82796
5.44221
-5.74153
-0.0924715
8.55285
11.7389
11.3689
10.2183
8.96276
7.5144
6.07169
3.89356
1.25169
-1.19524
-0.709809
-0.40766
49.4862
49.4427
49.893
49.8924
48.705
45.5871
37.4658
23.6219
15.9463
13.3782
10.9586
8.80716
10.0208
12.286
12.5709
11.5678
10.3851
9.24699
7.76935
5.82385
3.49491
1.0351
-1.34797
-0.76294
-0.428309
48.27
48.1623
48.4083
48.0758
46.5556
43.486
37.5178
29.6502
23.997
20.2761
16.7746
14.7138
14.8659
15.0907
14.3213
12.7867
11.2939
9.97435
8.00869
5.64463
3.25389
0.848285
-1.50351
-0.80644
-0.418265
47.1004
46.9556
47.0237
46.5015
45.0333
42.6317
38.6116
33.6069
29.4627
25.9341
22.0596
19.3218
18.1722
17.4887
16.2282
14.4108
12.669
10.9864
8.40718
5.69429
3.35359
0.83838
-1.63008
-0.745681
-0.37047
46.0812
45.9257
45.875
45.2732
44.081
42.4408
39.7752
36.8052
34.2571
31.4548
27.8583
23.8028
20.7003
19.3052
18.0453
16.2677
14.3902
12.3201
9.23835
6.08167
3.63685
0.903211
-1.49486
-0.50309
-0.221456
45.2544
45.0966
44.965
44.3214
43.3757
42.3203
40.9934
39.9397
39.0117
36.8828
33.4063
28.0802
23.3159
21.5161
20.3528
18.6401
16.5727
13.9752
10.4106
6.84524
4.064
1.44383
-0.716516
-0.169716
-0.053404
44.6372
44.4932
44.268
43.4074
42.5211
41.6795
42.3402
43.7496
43.0445
40.8599
37.3352
31.7456
26.5127
24.6198
23.3444
21.3779
18.8631
15.7303
11.6003
7.76114
4.99658
2.56139
1.19043
0.77133
0.190941
44.2264
44.1075
43.7556
43.2612
42.7687
42.3623
42.1126
41.4969
40.7694
39.4046
36.53
31.9956
27.3888
25.2569
23.7434
21.2214
18.3793
15.0225
10.4447
7.73019
6.45089
4.93994
3.18626
2.04254
0.612932
43.9718
43.8895
43.6498
43.3086
42.9198
42.427
41.6294
39.9432
38.8126
37.6746
35.2976
31.668
27.9894
25.9268
24.1739
21.6362
18.6405
14.7806
9.62698
7.78228
7.61997
6.67657
4.9111
2.90493
1.29956
43.8117
43.7407
43.5279
43.2044
42.7795
42.1688
41.2467
39.7101
38.5309
37.3324
35.1478
31.955
28.677
26.4715
24.4962
21.8917
18.6828
14.4296
9.58049
8.17091
8.20403
7.21362
5.40333
3.10958
1.98237
43.7296
43.6609
43.4507
43.1229
42.6733
42.02
41.0892
39.6563
38.1664
36.6306
34.5133
31.7606
28.8711
26.5545
24.3925
21.6741
18.3606
14.3673
10.3766
8.83556
8.61968
7.50369
5.72347
3.2619
2.44508
41.6329
40.9589
38.9276
35.5411
31.0565
26.0964
21.8329
18.8023
16.6325
14.8479
13.2534
11.7573
10.4489
9.46803
8.63453
7.71028
6.64416
5.49887
4.40166
3.38389
2.3967
1.40039
0.63523
-0.00435131
-0.146948
42.4352
41.8397
40.2088
37.0775
32.5008
27.0392
22.2766
18.9833
16.7616
14.9042
13.247
11.7252
10.4965
9.73714
9.13349
8.41672
7.34926
6.09103
4.84115
3.60006
2.30302
1.09701
0.376838
-0.346505
-0.0416639
43.8263
43.2687
41.6278
38.6619
33.8624
28.0263
22.8854
18.6741
15.4028
13.0904
11.4344
10.1485
9.29386
8.92494
8.7925
8.41865
7.66409
6.53204
5.28737
4.03333
2.4322
0.987427
-0.196325
-0.250327
0.0758869
45.6178
45.1312
43.5844
40.5995
35.6863
29.5933
23.7819
17.7218
12.2595
9.25318
8.13506
7.579
7.43079
7.65501
7.9989
8.01958
7.45827
6.58986
5.42574
4.22866
2.62201
0.867127
-0.677548
-0.310086
-0.0821244
47.5627
47.2091
45.963
43.2975
38.6484
32.8649
26.5261
16.101
4.61949
1.44493
2.7244
4.22027
5.46602
6.87787
7.88799
8.15059
7.72863
6.85126
5.72448
4.48898
2.88079
0.98436
-0.765749
-0.432578
-0.230064
49.3173
49.145
48.4196
46.508
42.8489
38.8877
34.1737
14.6208
-15.2097
-10.2719
-2.94174
0.380063
2.85438
5.9823
8.03415
8.45751
7.97588
7.10075
6.06203
4.7804
3.24468
1.13897
-0.83997
-0.53808
-0.317243
50.4911
50.4528
50.2849
49.3986
47.52
46.7064
45.8369
6.39387
-33.9098
-10.6138
-2.21531
-2.50521
-0.92643
5.16191
8.69288
9.24955
8.5335
7.54067
6.39818
5.15041
3.57958
1.24958
-0.966224
-0.607103
-0.370743
50.9347
50.9525
51.1868
51.1217
50.8304
51.9073
51.4286
-16.2326
-32.1503
-6.35555
0.217444
-4.35051
-2.98612
5.44725
9.90247
10.3431
9.32763
8.12709
6.78771
5.48681
3.80072
1.35618
-1.03577
-0.652659
-0.402629
50.7249
50.7277
51.1168
51.2865
51.1848
51.4235
48.2914
-37.5231
-14.8549
0.567954
2.76757
-4.02095
-1.54013
7.00395
10.9558
10.9599
9.78809
8.43648
6.94681
5.68909
3.80003
1.35079
-1.08491
-0.688218
-0.421075
50.0282
49.9753
50.3162
50.2487
49.3055
46.9578
38.6535
13.7166
6.55185
7.70352
6.52866
2.55745
5.50791
10.2078
11.8769
11.2408
9.89003
8.56476
7.17957
5.64931
3.6591
1.18093
-1.16444
-0.735503
-0.440327
49.0392
48.9273
49.1306
48.7378
47.1242
43.7987
36.7013
25.4386
18.0227
15.1691
13.0502
11.4292
11.9907
13.1776
13.1078
11.9513
10.4874
9.13306
7.61552
5.61998
3.40137
0.990094
-1.31395
-0.79293
-0.458212
47.9346
47.7813
47.8428
47.2351
45.478
42.3963
37.0864
30.2811
24.882
21.2971
18.3865
16.5185
15.9928
15.6831
14.7694
13.2206
11.559
9.974
8.01289
5.68279
3.2941
0.88998
-1.45922
-0.83532
-0.4544
46.8637
46.6937
46.6457
45.9648
44.3844
41.951
38.1377
33.5731
29.73
26.4418
23.2539
20.7117
19.1906
18.0999
16.6657
14.7978
12.905
10.9398
8.52296
5.95484
3.46439
0.90418
-1.53338
-0.759553
-0.408623
45.9217
45.7557
45.6388
44.9653
43.736
42.0677
39.418
36.6036
34.1544
31.3729
28.1324
24.7649
22.0852
20.3456
18.6558
16.5991
14.4731
12.1535
9.24437
6.35072
3.76246
1.00982
-1.37978
-0.527142
-0.255802
45.1472
44.9873
44.8251
44.1508
43.2107
42.1672
40.8902
39.9104
38.7981
36.3985
33.0583
28.9188
25.212
22.9742
21.0911
18.9132
16.5039
13.6594
10.2307
6.97189
4.14291
1.50794
-0.633197
-0.267176
-0.106758
44.5591
44.4155
44.1739
43.3038
42.434
41.7278
42.6332
43.9293
42.8262
40.301
36.9252
32.5737
28.5028
26.0341
23.9673
21.5182
18.6198
15.2559
11.3891
7.82349
4.96288
2.43736
1.08067
0.594459
0.137715
44.1618
44.0417
43.685
43.1859
42.7106
42.377
42.2565
41.7919
40.8347
39.138
36.3315
32.4679
28.5637
25.9566
23.868
21.2359
18.2722
14.8747
10.9125
8.05861
6.29285
4.63085
2.95222
1.8243
0.619763
43.912
43.826
43.5723
43.2028
42.7762
42.2678
41.569
40.3149
39.0249
37.5417
35.2137
31.981
28.6782
26.2364
24.1497
21.5123
18.4465
14.877
10.7687
8.52001
7.60797
6.31745
4.60411
2.68335
1.3166
43.7553
43.6811
43.4546
43.1045
42.6487
42.0345
41.1857
39.9054
38.6046
37.1575
35.0193
32.1211
29.1058
26.6283
24.398
21.7251
18.5768
14.8576
10.9114
8.87023
8.09656
6.88776
5.17368
2.96063
1.99852
43.6757
43.6049
43.3836
43.0342
42.5596
41.9011
40.9995
39.7168
38.2568
36.6356
34.5336
31.9049
29.119
26.6416
24.2956
21.5617
18.3736
14.8005
11.2813
9.31415
8.46512
7.21388
5.54943
3.15243
2.46087
41.2969
40.6318
38.637
35.4038
31.2833
26.7128
22.5216
19.2895
16.9056
15.0223
13.4016
11.9172
10.6083
9.53024
8.5642
7.57656
6.49058
5.34162
4.25919
3.24813
2.26032
1.27227
0.528017
-0.0719209
-0.162645
42.0337
41.4332
39.794
36.7944
32.6696
27.7777
23.1607
19.6653
17.1239
15.088
13.4138
11.9647
10.7828
9.8809
9.12424
8.23851
7.10688
5.84888
4.6344
3.42086
2.1313
0.938559
0.238005
-0.435738
-0.0481365
43.3283
42.7537
41.0653
38.2151
33.9914
28.91
23.9296
19.4597
15.8902
13.3773
11.6866
10.5182
9.69731
9.18185
8.85193
8.28622
7.44195
6.28931
5.10116
3.85494
2.26923
0.825456
-0.297192
-0.30951
0.0711291
45.0144
44.4977
42.865
39.9893
35.6954
30.4238
24.7793
18.6628
13.3428
10.2014
8.84703
8.29761
8.05842
8.05623
8.11142
7.9025
7.2419
6.32457
5.23001
4.0699
2.48849
0.772336
-0.752512
-0.361729
-0.0990031
46.8586
46.4502
45.0497
42.4381
38.3943
33.2405
26.7841
17.374
8.1409
4.75112
4.86727
5.65357
6.43671
7.30816
7.91317
7.99928
7.47766
6.57358
5.54852
4.34351
2.77302
0.89715
-0.822327
-0.47767
-0.246272
48.5464
48.2854
47.3014
45.292
42.0433
37.9038
31.3668
15.4357
-2.01019
-2.55905
0.675249
2.80843
4.63546
6.67705
8.00127
8.28642
7.73753
6.86081
5.89262
4.63246
3.06796
1.02421
-0.86103
-0.567512
-0.330665
49.7362
49.5981
49.0992
47.9068
45.8895
43.4431
37.3279
12.5042
-12.4445
-5.89664
-0.655796
0.696928
2.78033
6.37544
8.53569
8.88891
8.24991
7.27352
6.15069
4.92984
3.30182
1.11073
-0.928889
-0.61835
-0.37824
50.2648
50.1872
50.0802
49.539
48.4922
47.0335
40.211
6.20916
-13.2594
-3.88614
0.622662
0.204302
2.27474
7.00318
9.5327
9.71378
8.86097
7.73069
6.47991
5.1434
3.45858
1.21805
-0.975353
-0.659378
-0.409272
50.161
50.0803
50.1598
49.8275
48.8478
46.9175
38.9479
6.53659
-3.40012
2.13387
3.72203
2.19187
4.32638
8.68875
10.7129
10.4847
9.40164
8.08395
6.66539
5.3171