/*--------------------------------*- C++ -*----------------------------------*\
  =========                 |
  \\      /  F ield         | OpenFOAM: The Open Source CFD Toolbox
   \\    /   O peration     | Website:  https://openfoam.org
    \\  /    A nd           | Version:  6
     \\/     M anipulation  |
\*---------------------------------------------------------------------------*/
FoamFile
{
    version     2.0;
    format      ascii;
    class       volScalarField;
    location    "15";
    object      epsilon;
}
// * * * * * * * * * * * * * * * * * * * * * * * * * * * * * * * * * * * * * //

dimensions      [0 2 -3 0 0 0 0];

internalField   nonuniform List<scalar> 
230684
(
0.193292
0.175454
0.148586
0.130302
0.24785
0.307423
0.568182
0.828974
0.776789
0.749208
0.756345
0.780988
0.82596
0.896208
0.995661
1.1133
1.22784
1.33869
1.43782
1.52711
1.61804
1.68888
1.74109
1.73434
1.69127
0.193428
0.174761
0.297468
0.217447
0.464261
0.854396
1.94057
0.928723
0.99007
1.05419
1.2561
1.46515
1.79349
2.16831
2.76387
3.49738
3.75963
4.08203
4.23753
4.43596
4.65341
4.57447
4.75326
3.21033
2.5154
0.193644
0.174067
0.304264
0.384816
0.889367
4.55218
1.27935
3.21867
3.84764
2.93324
2.53143
2.38115
2.28017
2.26685
2.83202
3.03876
2.94305
2.75999
2.57864
2.46204
2.38882
2.29112
1.58937
0.991639
0.746169
0.191641
0.341381
0.539795
0.419076
0.377346
6.06285
5.58354
2.13025
2.0106
2.1357
2.25027
10.0367
2.49274
2.18919
2.50083
1.36123
1.43865
1.65474
1.74527
1.77207
1.80208
1.77947
1.50131
0.83498
0.57274
0.193594
0.174193
0.301279
0.39173
0.378146
1.05954
1.24035
1.85263
2.33848
2.68492
2.80239
6.59196
2.60553
2.23618
6.12129
2.38355
2.02531
2.01467
2.02286
1.96418
1.90626
1.90588
1.6378
0.892461
0.605596
0.193734
0.173774
0.300147
0.365857
0.616649
2.1854
0.894604
0.927797
2.29258
2.01163
1.78952
1.97392
2.10149
2.40151
5.20103
1.62426
1.52533
1.65274
1.80185
1.99126
2.04416
2.01955
1.61783
0.912146
0.626468
0.193777
0.173927
0.300734
0.367017
3.99842
2.10394
0.777493
0.711141
0.806885
0.771806
0.691327
0.797646
1.14247
0.913817
1.08027
1.54731
1.85199
1.96657
1.98416
2.01908
2.03243
2.05509
1.80548
0.965009
0.665183
0.194017
0.173911
0.304453
0.398585
0.405699
0.785268
0.912298
8.95139
2.34005
1.00314
0.864977
0.785075
1.49999
3.25226
1.70695
1.21147
1.28531
1.53263
1.72734
1.93674
2.06592
2.16382
1.88305
1.00631
0.669646
0.194063
0.174267
0.306426
0.414847
0.401631
0.779946
1.36642
9.48647
1.53805
0.964153
0.819319
0.776053
2.95542
2.46237
1.50427
1.15103
1.24635
1.51222
1.76287
1.97325
2.0954
2.15178
1.8095
1.0143
0.671327
0.19408
0.174396
0.307076
0.413758
0.448131
0.851992
1.2447
2.76692
3.59212
1.84759
1.39914
1.34108
1.84108
2.62009
3.47994
2.98397
2.4334
2.12132
2.01811
2.05789
2.16942
2.23888
1.84552
1.00643
0.676727
0.193716
0.175779
0.305191
0.412592
0.499366
2.9245
2.3349
3.01328
1.14333
1.10586
1.09525
1.24215
1.6393
0.87133
0.901185
0.872523
1.00755
1.39006
1.68811
1.86643
2.06471
2.13465
1.74841
0.850796
0.566254
0.194083
0.17519
0.300939
0.410892
0.599434
1.24451
1.72336
0.930505
2.19399
0.995858
0.775043
1.11534
1.03576
0.873371
0.781171
0.762116
0.984515
1.11461
2.08881
1.47341
1.15075
1.26793
1.38858
0.882171
0.621974
0.194624
0.174819
0.296359
0.422945
0.725103
1.07888
1.23638
2.11648
1.53147
1.21822
1.41136
2.35491
9.60853
3.51264
3.16941
1.60874
11.9554
2.25304
6.97961
2.42769
1.95789
1.5334
1.38018
0.956106
0.499292
0.195211
0.173746
0.294382
0.43189
0.973021
1.30208
1.71771
1.82813
1.79627
1.97137
1.86643
1.83062
1.65317
1.81143
1.48889
2.18112
1.10926
1.65141
4.89156
2.52332
5.12711
1.59594
1.34475
0.88979
0.330797
0.196188
0.171595
0.294549
0.438036
1.35384
1.45539
1.88625
2.19566
2.3221
2.43031
2.42196
6.06857
2.97672
1.82701
1.63912
2.80267
2.25987
2.10806
2.39159
2.40541
2.56975
4.22431
4.06095
1.65615
0.647589
0.195267
0.17354
0.285918
0.288188
1.07122
1.12369
1.34379
1.61752
1.68137
1.64567
2.67855
8.09223
3.13586
2.60369
3.02281
3.1522
0.926372
2.4273
1.57374
3.10186
1.22862
1.19246
0.593744
0.862481
0.825265
0.195399
0.173616
0.143587
0.151889
0.286293
0.434788
0.854787
0.793618
0.544369
0.884586
1.43717
0.742057
5.76881
2.50213
2.68449
1.13345
1.0804
3.39756
2.14057
1.30826
1.54875
1.6898
1.36697
1.27052
1.218
0.194639
0.174716
0.14816
0.131424
0.155141
0.373302
0.793372
1.18466
1.1891
0.803925
1.09406
1.15899
0.831278
1.0548
1.2438
1.88507
1.00247
1.24474
15.6265
2.20385
1.7101
1.18145
1.18879
1.19673
1.19619
0.194934
0.173714
0.152478
0.129903
0.12777
0.146364
0.291341
3.20356
1.295
0.746086
1.28887
4.40885
3.52662
1.02394
0.744398
0.700885
0.680504
1.0827
11.8765
1.80212
2.1501
1.38733
1.26021
1.18611
1.11628
0.196436
0.171149
0.154426
0.133921
0.121371
0.123479
0.140743
0.18388
0.241896
0.306554
0.3586
0.714495
0.710911
0.472011
0.470303
0.464333
0.892126
1.5679
1.70199
0.970697
0.807342
0.87339
0.883268
0.871771
0.84636
0.0369433
0.0412999
0.0437577
0.0488109
0.0733638
0.233062
0.42034
0.488519
0.478146
0.482341
0.497988
0.520526
0.549952
0.590185
0.643804
0.704961
0.765738
0.823022
0.876684
0.92452
0.969646
1.034
1.0427
1.02657
0.994537
0.0370746
0.0411732
0.0497696
0.0623104
0.437108
1.36857
2.21952
2.03886
1.40157
1.17474
1.01189
0.948101
1.00195
1.12094
1.33505
1.58598
1.80303
1.97421
2.11954
2.22098
2.29179
2.33574
2.34633
1.96783
1.79433
0.03731
0.0422808
0.0513297
0.0825525
1.41258
5.58524
1.89159
0.813026
0.706132
0.771257
0.801544
0.845333
0.98427
1.01386
1.01248
1.01122
1.00323
0.99142
0.989777
0.95394
0.760231
0.647048
0.632768
0.037172
0.0479175
0.056098
0.12946
0.462677
0.753916
0.317107
0.314906
0.506664
2.64208
0.642638
0.259195
0.199167
0.302469
0.434672
0.525415
0.575542
0.600071
0.514763
0.38612
0.348483
0.037744
0.0437875
0.0548727
0.084443
0.408562
1.8151
1.4146
0.721164
0.561045
0.466031
0.559723
3.96391
0.713184
0.893852
1.06071
0.825043
0.708241
0.666043
0.656633
0.555567
0.411726
0.344425
0.0378858
0.0446133
0.0558729
0.0847674
0.832354
2.30092
1.20877
0.529617
1.95628
2.13746
0.921039
0.707567
0.261678
0.313866
0.603935
0.742438
0.746713
0.711727
0.573664
0.405734
0.351142
0.0377323
0.0437674
0.0549363
0.0897225
3.04525
0.597198
1.57017
0.931931
0.480386
0.369204
0.394334
0.450062
0.515139
0.593911
0.655347
0.696967
0.595301
0.419932
0.365045
0.0374255
0.0417249
0.0549079
0.0772189
0.459929
0.746343
0.607497
6.49688
0.45154
0.741796
0.423646
0.370316
0.419864
0.521705
0.590186
0.661982
0.71219
0.737516
0.620747
0.443943
0.364307
0.0372278
0.0413281
0.0530043
0.0738975
0.110481
0.184867
0.631762
1.07299
0.798717
0.470622
0.397476
0.426867
0.524032
0.620792
0.683804
0.709419
0.73006
0.61481
0.443186
0.358474
0.0371052
0.041748
0.0509063
0.0785918
0.129599
0.179257
0.408226
3.2549
2.728
1.2267
0.570197
0.96572
1.60268
1.40388
0.779086
0.521547
0.475785
0.48759
0.54373
0.620545
0.699664
0.740343
0.625571
0.437967
0.351933
0.0369885
0.0414713
0.0495023
0.0921139
0.268965
3.14099
2.38973
1.06625
0.980558
1.07238
0.780316
0.604541
0.542073
0.493254
0.478129
0.508562
0.583805
0.65637
0.544812
0.361546
0.301894
0.0368224
0.040257
0.0487421
0.114096
0.205621
0.833903
1.83795
1.39453
1.27103
2.17453
1.13805
2.4574
1.15818
0.534538
0.472504
0.426944
0.398897
0.362242
0.0367963
0.0398914
0.0537462
0.151032
0.206048
0.202795
0.538099
2.50215
2.80368
1.60488
2.16042
1.5497
0.412706
2.24808
0.84127
1.53202
1.53979
0.442007
0.402265
0.507134
0.321645
0.0367934
0.0412763
0.0501343
0.202539
0.247957
0.221751
0.338436
0.461346
0.703893
0.62259
0.632887
1.15328
2.2246
1.28064
1.45679
1.23529
0.398416
0.346832
5.09
0.838367
0.999163
0.476517
0.176512
0.0367496
0.0407545
0.0517527
0.254422
0.296216
0.24621
0.368045
0.491806
0.588699
0.674608
0.721962
4.93186
3.37013
0.747516
0.39299
0.406607
0.996126
1.46227
1.41509
1.33253
0.945643
0.984811
0.4804
0.444138
0.0367579
0.0402896
0.0519199
0.135122
0.36239
0.265772
0.334318
0.442018
0.516173
0.560433
0.676604
13.0228
5.05697
0.862222
0.893506
1.06719
1.60369
0.791591
0.721931
0.0368238
0.0403698
0.0429771
0.0617808
0.164832
0.240116
0.273789
0.313885
0.357194
0.418205
0.551739
1.6707
0.157743
4.02496
3.16343
3.87507
1.3874
0.82034
0.898228
1.01912
1.11873
1.0305
0.0367249
0.0400698
0.0414551
0.0446225
0.0615368
0.153405
0.249574
2.84469
1.86254
1.22683
0.820198
0.587236
0.796001
11.4645
2.9147
2.65767
3.45606
4.43779
3.80254
1.93969
1.53649
1.32587
1.20176
0.0366679
0.0400012
0.0411896
0.0419299
0.0464234
0.0654719
0.150747
18.1373
3.07031
1.25735
1.00183
2.86105
2.09463
1.09723
1.06153
0.939485
4.0544
6.56194
3.40886
1.87664
1.46534
1.23957
1.0689
0.0367424
0.0399938
0.0411882
0.0416795
0.0432006
0.0486739
0.0739289
0.144872
0.238522
0.354406
0.402566
0.458763
0.483251
0.389147
0.369856
0.350159
0.368365
0.710153
4.94845
1.24829
0.709172
0.666548
0.660256
0.647519
0.62547
0.0295138
0.0293295
0.0297407
0.0347219
0.0524653
0.234658
0.381253
0.405155
0.432439
0.469526
0.508064
0.545169
0.583726
0.628233
0.681113
0.738535
0.793177
0.842379
0.885929
0.923246
0.95454
0.980094
0.987223
0.957483
0.923577
0.0295306
0.0292966
0.0303607
0.0408245
0.201369
0.448955
0.448947
0.580403
0.802355
0.908003
0.954005
1.01589
1.11246
1.25434
1.45901
1.67328
1.83163
1.95178
2.07396
2.1734
2.23383
2.26186
2.18506
1.83656
1.71868
0.029587
0.0294678
0.030645
0.0523158
0.55088
2.74381
0.611978
0.227881
0.180857
0.147507
0.157676
0.220922
0.303147
0.416904
0.551788
0.630997
0.668588
0.709976
0.714613
0.715837
0.714066
0.706853
0.525252
0.464534
0.569542
0.0295977
0.0294167
0.0309563
0.0448272
0.111973
2.22314
0.479382
0.123603
0.0738479
0.061609
0.0759553
1.82724
0.563988
0.167224
0.112263
0.0707173
0.0518442
0.0547899
0.0704207
0.0859911
0.0964125
0.102362
0.0916842
0.11119
0.148495
0.029672
0.0300196
0.031775
0.0448266
0.13801
1.12657
0.504359
0.318194
0.462355
0.184752
0.116807
2.01072
0.904547
0.194737
0.142919
0.11048
0.0711185
0.0709162
0.0851667
0.0996218
0.107391
0.108191
0.0930109
0.0957798
0.109232
0.0296971
0.0302916
0.0326764
0.048116
1.3804
4.97997
1.39858
0.212081
0.271255
0.369828
0.171169
0.158663
0.120129
0.0630379
0.0515292
0.0726033
0.098804
0.112434
0.11313
0.0937948
0.0940464
0.105347
0.0296522
0.0300359
0.0323127
0.0569103
8.55634
1.77806
1.24504
0.730601
0.204539
0.069809
0.0583484
0.0633401
0.0734254
0.0858321
0.0978173
0.108342
0.0951728
0.0957061
0.107235
0.0295936
0.0294652
0.031711
0.0449894
0.279851
0.423312
0.517159
3.48771
1.02556
0.815158
0.192784
0.067204
0.0668112
0.0796851
0.0882082
0.0969628
0.105715
0.11282
0.0971805
0.0962782
0.106208
0.0295744
0.0293999
0.0306159
0.0474313
0.0688798
0.0847902
0.581115
0.796438
1.39934
0.622286
0.140557
0.0641669
0.0661393
0.0786115
0.0899132
0.100469
0.110058
0.111475
0.0950777
0.0945259
0.103827
0.0295572
0.02937
0.0307893
0.0567876
0.0773665
0.0664984
0.230146
2.51611
1.60726
0.556661
0.941921
1.34387
0.816524
0.504152
0.154273
0.0707421
0.06471
0.0694969
0.0780998
0.086664
0.0979944
0.106954
0.0959236
0.0949041
0.103056
0.0295278
0.0295172
0.0313342
0.0766244
0.0964519
0.119326
3.04264
7.85179
2.43844
2.29022
2.79542
1.59476
1.33092
1.41159
1.0552
0.632816
0.364767
0.167091
0.0950786
0.0868559
0.0888933
0.0979161
0.0871624
0.0831341
0.0920923
0.0295164
0.0297414
0.0321287
0.106611
0.101418
0.0973139
0.911474
2.25207
1.14269
2.05518
2.72821
4.25861
4.03055
4.57856
4.00062
3.5644
2.96403
1.05681
0.433188
0.243467
0.102546
0.0868881
0.0773423
0.080376
0.0926151
0.0295418
0.0300646
0.0333483
0.143293
0.11171
0.0612031
0.0659312
0.148866
0.372592
1.18504
4.17622
1.83437
0.486151
0.341397
0.448016
0.619305
0.752672
0.387686
0.582748
0.323413
0.133909
0.0998018
0.0744547
0.064274
0.0769054
0.0295854
0.0305742
0.0347025
0.193171
0.131362
0.0624366
0.0568972
0.0677864
0.114447
0.115598
0.358262
0.298308
0.516928
0.255582
0.238636
0.107093
0.0904655
0.0888468
0.539451
0.404239
0.527766
0.251156
0.10954
0.0939264
0.10615
0.0296279
0.0310045
0.0363847
0.250736
0.1555
0.0707457
0.0624559
0.0725521
0.0899813
0.103372
0.124876
1.75618
1.79744
0.320001
0.120962
0.0944198
0.078837
0.0867176
0.169033
0.234137
0.182295
0.126103
0.155222
0.356227
0.432378
0.0295733
0.0304603
0.0363352
0.177034
0.249427
0.123863
0.104899
0.110172
0.138865
0.200084
0.298825
1.9768
1.98559
0.889306
0.610532
0.889428
0.541571
0.618221
0.727187
0.672988
0.57204
0.568679
0.623885
0.864626
0.877866
0.0294935
0.029719
0.0327453
0.0626455
0.170456
0.199877
0.181897
0.171412
0.243452
0.276517
0.342609
1.01305
3.009
1.76843
1.19274
1.08608
1.05983
1.85467
2.07562
1.36609
1.11926
1.25819
1.304
1.2624
1.17697
0.0296015
0.0291234
0.0296187
0.035082
0.0573272
0.155963
0.233704
1.48673
1.24646
0.9457
0.777792
0.604629
0.564106
0.612607
0.934685
1.30002
1.51467
2.56574
3.90889
1.73687
1.72415
1.73533
1.61611
1.51374
1.38064
0.0294845
0.0291296
0.0289956
0.0300291
0.0352498
0.0623429
0.177362
17.5893
1.90395
0.871331
0.860835
0.903159
0.921329
0.88375
0.747683
0.832968
0.992201
1.8733
3.04518
1.813
1.68813
1.61224
1.49613
1.37806
1.24477
0.0295051
0.0290961
0.0288507
0.0294605
0.0316366
0.0386211
0.0676132
0.15397
0.257964
0.343818
0.388077
0.393451
0.374571
0.349492
0.332548
0.3234
0.358703
0.462108
0.576544
0.668946
0.53216
0.581799
0.655905
0.670801
0.671367
0.0293625
0.027751
0.0271891
0.0319089
0.0584215
0.14627
0.251172
0.331233
0.411575
0.487099
0.547726
0.599714
0.650413
0.702212
0.756161
0.810905
0.858714
0.898204
0.931117
0.957231
0.97681
0.988046
0.98246
0.941464
0.903336
0.029346
0.0276395
0.0276065
0.0356656
0.108082
0.160385
0.191332
0.361306
0.623488
0.857013
1.02831
1.16699
1.30258
1.45373
1.62622
1.81018
1.92407
2.00277
2.09551
2.13854
2.17498
2.18545
2.09173
1.7299
1.67552
0.0293496
0.0277613
0.0279585
0.0468689
0.0889027
0.223799
0.12071
0.085738
0.104727
0.128076
0.153098
0.188682
0.258385
0.365039
0.480104
0.563949
0.585762
0.625996
0.632604
0.630067
0.624881
0.612279
0.460446
0.406781
0.536448
0.0294149
0.0278277
0.0280335
0.0389129
0.0562294
0.124707
0.0902281
0.0505744
0.0425507
0.0381343
0.0394202
0.104633
0.0906418
0.0537658
0.0437338
0.0360316
0.0319662
0.0311756
0.0317424
0.0324908
0.0332083
0.0335312
0.0376242
0.0600251
0.0843275
0.0293764
0.0280241
0.028277
0.036856
0.0661719
0.168954
0.123221
0.129365
0.282477
0.129103
0.0637511
0.137037
0.139748
0.0580165
0.0433423
0.0380649
0.0316218
0.0289867
0.0293161
0.0304425
0.0309111
0.0313574
0.0309754
0.0353651
0.0436504
0.0293332
0.0281858
0.0286315
0.036819
0.276792
0.951566
0.340993
2.0147
3.92415
0.969085
0.173001
0.10009
0.106603
0.077752
0.0485473
0.0379465
0.0310673
0.0283882
0.0289227
0.0303666
0.0313965
0.0314184
0.0308796
0.0346989
0.0391526
0.0293536
0.0280461
0.0285091
0.0372368
0.458195
0.824325
0.439794
1.07689
0.957169
0.635895
0.175032
0.0418196
0.0292377
0.0285344
0.0289845
0.0297977
0.0306018
0.0312687
0.0308598
0.0339943
0.03944
0.0293714
0.0278071
0.0280238
0.0376039
0.0712391
0.132029
0.503007
2.06518
1.67888
0.921922
0.199675
0.0412035
0.029512
0.0293011
0.0297835
0.0303142
0.0308632
0.0313085
0.0309427
0.03448
0.0386431
0.0292589
0.02779
0.0279645
0.0426755
0.0600835
0.0678168
0.557072
2.04608
2.14673
0.759456
0.138385
0.0359117
0.0292071
0.0292747
0.0298701
0.0304257
0.031051
0.0312231
0.0308141
0.0342457
0.0382381
0.0293914
0.0277461
0.0281898
0.0529345
0.0679342
0.0519897
0.143512
1.73767
1.19896
0.389117
0.466277
1.11999
0.838188
0.363966
0.085118
0.0354044
0.0300137
0.029464
0.0295625
0.0298714
0.0304989
0.0310922
0.0309642
0.0340994
0.0382757
0.0292881
0.0279388
0.0290121
0.0728993
0.0785999
0.0538017
0.272474
1.19275
0.337358
0.129491
0.107402
0.128143
0.169437
0.197812
0.174114
0.124361
0.0925587
0.0607218
0.0394702
0.0324361
0.030948
0.0310109
0.0307274
0.0334176
0.0367159
0.0291118
0.0282679
0.0302257
0.100906
0.086394
0.0469633
0.0883237
0.380092
0.164151
0.114207
0.255122
0.303374
0.196862
0.223261
0.296928
0.30409
0.259668
0.202081
0.109385
0.0624752
0.0391093
0.0344479
0.0326649
0.0337543
0.0373076
0.0289799
0.0286774
0.0314974
0.134958
0.0975973
0.0443481
0.0340175
0.0463286
0.0730773
0.0962723
0.4955
0.252475
0.130068
0.0801783
0.0897631
0.101341
0.102754
0.0915284
0.0906564
0.0697437
0.0461195
0.0386535
0.0348913
0.036214
0.040926
0.0289337
0.0292433
0.0333113
0.184662
0.114617
0.0485374
0.0328876
0.0327754
0.0400584
0.0426281
0.0857087
0.0957212
0.098065
0.0599825
0.052251
0.0403935
0.0378877
0.0375823
0.0489669
0.063083
0.0556367
0.0496477
0.0429192
0.0793857
0.106189
0.0290166
0.0297852
0.0355926
0.243777
0.136264
0.0549908
0.0373558
0.035712
0.0374316
0.0391957
0.0472336
0.162209
0.349505
0.102165
0.0534685
0.0492263
0.0500546
0.0521768
0.0612055
0.0754899
0.0796052
0.0790634
0.156052
0.447777
0.537644
0.0289715
0.0294671
0.0344508
0.196906
0.226635
0.106099
0.0728262
0.0670744
0.0892417
0.152096
0.234849
0.437021
0.693153
0.643353
0.622544
0.643157
0.654735
0.695018
0.771392
0.751329
0.745995
0.770756
0.929268
0.973823
1.02312
0.0288714
0.028509
0.0315986
0.0599223
0.176053
0.191679
0.164659
0.149859
0.174595
0.216819
0.261316
0.3627
0.42326
0.545672
0.753051
0.901194
0.99669
1.1594
1.27853
1.14512
1.08984
1.08468
1.11408
1.15919
1.16383
0.0293728
0.0276502
0.0278723
0.0341657
0.0595837
0.155324
0.201829
0.345065
0.380195
0.40767
0.468058
0.471634
0.464427
0.478917
0.545198
0.723451
0.906917
1.33582
1.54016
1.20654
1.22551
1.28193
1.33728
1.33255
1.30832
0.0293253
0.0278127
0.0268026
0.0280797
0.0352638
0.0609512
0.150017
0.448139
0.455741
0.451406
0.488429
0.489026
0.476854
0.484965
0.508973
0.570853
0.672598
0.99408
1.11535
0.877932
0.946786
1.0849
1.17557
1.1728
1.14657
0.0291491
0.0278819
0.0265787
0.0267697
0.0288069
0.0381264
0.0644795
0.159167
0.261753
0.315223
0.350588
0.344137
0.315766
0.295079
0.280834
0.272154
0.278459
0.279198
0.278144
0.291496
0.322252
0.402867
0.527143
0.625947
0.651288
0.0293093
0.027685
0.026661
0.0303539
0.0512828
0.111683
0.218046
0.313739
0.411436
0.515163
0.601113
0.65852
0.716116
0.772513
0.826295
0.876772
0.918098
0.949981
0.974348
0.991556
1.00258
1.00471
0.989633
0.941272
0.898086
0.029079
0.0275778
0.0272683
0.0351322
0.0932747
0.110886
0.155155
0.33318
0.596836
0.874878
1.11179
1.30665
1.47838
1.64057
1.78884
1.93652
2.00807
2.05976
2.10402
2.13481
2.14653
2.13608
2.01916
1.66927
1.62641
0.029203
0.0276019
0.0275374
0.0450705
0.0656982
0.0538254
0.0519809
0.0699329
0.106147
0.149164
0.189848
0.230378
0.297297
0.385742
0.475609
0.550674
0.569897
0.600457
0.603795
0.600459
0.589154
0.581946
0.437434
0.392011
0.519948
0.0291558
0.0277181
0.0276304
0.0381035
0.0501199
0.0408999
0.0377894
0.0346738
0.0349602
0.0343324
0.0329716
0.0340332
0.0354485
0.0332277
0.031611
0.0300379
0.0292623
0.0289545
0.0287773
0.0286641
0.0286985
0.0288062
0.0323009
0.0511363
0.0732174
0.0292048
0.0277748
0.0276908
0.0347341
0.0476306
0.0480717
0.0507318
0.068225
0.152923
0.0866642
0.0479378
0.041228
0.0402361
0.033629
0.0299801
0.0281063
0.0268943
0.026238
0.0259256
0.0259084
0.0259337
0.0259692
0.0257412
0.0266607
0.0293002
0.0293426
0.0278179
0.0277878
0.032739
0.062578
0.110326
0.141023
1.81753
3.09847
0.733554
0.157459
0.0833531
0.0750363
0.0588705
0.0376589
0.0290275
0.0269201
0.0261993
0.0259239
0.0258798
0.0258981
0.0259043
0.0256939
0.0251606
0.0258624
0.029318
0.0278093
0.0276221
0.0323582
0.0649717
0.110961
0.285066
1.60625
0.898209
0.571804
0.163919
0.039124
0.0271054
0.026113
0.0258562
0.025866
0.0258485
0.0258624
0.0256908
0.0249617
0.0254647
0.0292129
0.0277079
0.0274956
0.0347126
0.0534424
0.0711027
0.411572
2.33027
2.68807
0.942818
0.203372
0.0401568
0.0270486
0.0260281
0.0258395
0.0258309
0.0258429
0.0258822
0.0256822
0.0249581
0.0252832
0.0291821
0.0276227
0.0275263
0.0406731
0.0579107
0.0609591
0.453334
4.51061
2.8459
0.800612
0.147558
0.0347232
0.0267436
0.0260189
0.0258391
0.0258612
0.0258797
0.0259
0.0256674
0.0249489
0.0252658
0.0293997
0.0275441
0.0278231
0.0514504
0.0644376
0.0482061
0.0892665
1.27632
0.954086
0.322201
0.35082
0.668049
0.849817
0.372061
0.0775232
0.0309577
0.0267265
0.0261427
0.0258902
0.0258327
0.0258592
0.0258896
0.0256976
0.0249707
0.0253263
0.0293332
0.0277429
0.0286569
0.0708912
0.0740227
0.0437442
0.0491453
0.123671
0.113127
0.0644192
0.0505892
0.0575539
0.0736677
0.0587736
0.0434392
0.0369061
0.0338996
0.0308813
0.0277684
0.026368
0.0260362
0.026023
0.0258318
0.0249776
0.0253202
0.0291317
0.0280987
0.0299584
0.0977503
0.0836542
0.042368
0.0376646
0.0664092
0.0552354
0.0457631
0.051138
0.0581449
0.0488196
0.0446258
0.0474426
0.0496491
0.0481763
0.0443708
0.0356398
0.0299729
0.0274739
0.0267314
0.0262837
0.0255597
0.0263825
0.0289699
0.0285231
0.0314103
0.132068
0.0952821
0.0439563
0.0306388
0.0318942
0.0367532
0.0387532
0.0573443
0.0580154
0.0449619
0.0349655
0.0343859
0.0352027
0.0352224
0.0349906
0.0329386
0.0310493
0.0285553
0.0274041
0.0269685
0.0298939
0.0341003
0.0288829
0.0291321
0.0335715
0.183496
0.111577
0.0476218
0.0321316
0.0309525
0.0326735
0.0324889
0.0368083
0.0414237
0.0379307
0.0316634
0.0294007
0.0281928
0.0278844
0.0277766
0.0282938
0.0297603
0.0286746
0.0286678
0.0314178
0.0865212
0.11918
0.0289639
0.0297078
0.036046
0.245296
0.132758
0.0534782
0.0365209
0.0340696
0.0339366
0.0341467
0.036671
0.0496094
0.0674224
0.0499807
0.0453239
0.0488259
0.0543048
0.0601923
0.0676578
0.0772458
0.086695
0.0896258
0.195709
0.546965
0.644424
0.0289231
0.0294627
0.035352
0.205818
0.22491
0.104498
0.0694326
0.061284
0.0791785
0.137824
0.220023
0.316774
0.442661
0.535631
0.624639
0.705245
0.775019
0.83487
0.888849
0.909242
0.93072
0.967687
1.02606
1.06377
1.11686
0.0288182
0.0284089
0.0317309
0.0601919
0.187624
0.198082
0.166566
0.129147
0.141886
0.171685
0.228022
0.290268
0.337389
0.40087
0.454081
0.572139
0.667499
0.820823
0.904628
0.895217
0.885341
0.88694
0.922472
0.98253
1.04215
0.0294054
0.0274775
0.0277425
0.0347177
0.0667155
0.156356
0.203345
0.221553
0.218533
0.228201
0.255461
0.309319
0.346579
0.376917
0.407483
0.481108
0.561915
0.737511
0.807037
0.810058
0.823636
0.884284
0.969036
1.02317
1.04136
0.0290941
0.0277681
0.0264986
0.0278403
0.0361426
0.0681775
0.147844
0.248506
0.297569
0.310469
0.31748
0.322881
0.330299
0.341326
0.356482
0.39373
0.427417
0.51083
0.532104
0.543113
0.568248
0.653587
0.762643
0.835407
0.857609
0.0290319
0.0278298
0.0262265
0.0262918
0.0282818
0.0394171
0.0738324
0.160397
0.241626
0.292867
0.29759
0.281338
0.255
0.230615
0.218442
0.212976
0.208654
0.205626
0.201767
0.200592
0.207247
0.234337
0.32191
0.415047
0.480033
0.0293089
0.0276809
0.0265492
0.0296203
0.0482646
0.102932
0.213549
0.322929
0.428115
0.539701
0.63808
0.703049
0.76695
0.826601
0.880906
0.928372
0.965882
0.993392
1.01248
1.02388
1.02909
1.02564
1.00468
0.951561
0.904553
0.0290743
0.0275392
0.0272275
0.034633
0.0894203
0.103725
0.156596
0.342719
0.608893
0.902823
1.16951
1.402
1.6022
1.77079
1.9084
2.02396
2.06883
2.10897
2.13304
2.1372
2.1372
2.11498
1.98025
1.63407
1.59585
0.0291341
0.0276088
0.0274876
0.0443576
0.0624551
0.0440573
0.044132
0.0674267
0.110067
0.163775
0.219107
0.272259
0.338117
0.414724
0.489281
0.54633
0.561888
0.586478
0.59115
0.588669
0.582776
0.568603
0.429556
0.386865
0.51197
0.0290849
0.0276871
0.0275721
0.0380211
0.0492641
0.0358869
0.030678
0.030297
0.0313213
0.0320682
0.0307688
0.0295172
0.0296046
0.0298706
0.0296052
0.0290508
0.0288039
0.0286767
0.028506
0.0284423
0.0284505
0.0285145
0.0318436
0.0499565
0.0716344
0.0290858
0.0277406
0.0275799
0.0341747
0.0445901
0.0348403
0.0336013
0.0426865
0.0821573
0.0602063
0.0404798
0.0323918
0.0305186
0.029439
0.0280638
0.0269817
0.0263774
0.0260291
0.0257939
0.0257027
0.0256749
0.0257177
0.0253611
0.0253694
0.0269864
0.0293891
0.0277411
0.0274154
0.0316395
0.0455054
0.0433565
0.0658248
1.53791
2.35774
0.526817
0.155114
0.0892208
0.0717507
0.0501203
0.0339088
0.0278429
0.0264638
0.0260106
0.0257719
0.0256722
0.0256536
0.0256326
0.025374
0.0241232
0.0233968
0.0293751
0.0277972
0.0272751
0.0310684
0.0472215
0.05316
0.186926
3.14446
1.78559
0.530482
0.130098
0.0356774
0.0267948
0.0259786
0.0257349
0.0256579
0.025636
0.0256166
0.0253895
0.0240582
0.0229502
0.0292467
0.0277156
0.0271686
0.0334151
0.0504748
0.0563316
0.299766
5.58303
2.51321
0.564316
0.139201
0.0366842
0.0267995
0.025911
0.0256946
0.0256178
0.0255918
0.0256109
0.0253834
0.0240992
0.022842
0.0293717
0.0274681
0.0274179
0.0395434
0.0561895
0.0545977
0.331404
4.16332
2.05148
0.491944
0.109242
0.0331333
0.0265996
0.0258906
0.0256759
0.0256384
0.0256404
0.0256297
0.025379
0.024125
0.0228803
0.0293864
0.0275335
0.0278258
0.0506327
0.0630873
0.044343
0.061764
0.829241
0.635391
0.258459
0.324217
0.926748
0.719606
0.256818
0.0631682
0.0296277
0.0263853
0.0258789
0.0256841
0.0256214
0.0256404
0.0256297
0.0254117
0.024135
0.022935
0.0293308
0.0277461
0.0286361
0.0695956
0.0723174
0.0414462
0.0352096
0.0445081
0.0619363
0.0470007
0.0416428
0.0471216
0.0556052
0.0428199
0.03152
0.0278251
0.0268201
0.0263284
0.0258991
0.0256865
0.025673
0.0256931
0.0254718
0.0241373
0.0231084
0.0291396
0.0281162
0.0298851
0.095239
0.0834843
0.0421547
0.0314389
0.0324974
0.0356713
0.0341569
0.0322445
0.0324696
0.0318596
0.0302294
0.0288374
0.0281378
0.0277466
0.0274932
0.0266047
0.0260156
0.0258825
0.0257946
0.0255763
0.0241444
0.0243056
0.0289543
0.028555
0.0315208
0.130793
0.0955274
0.0447185
0.0304526
0.0299338
0.0318994
0.0318952
0.0315729
0.0320739
0.0307365
0.0286874
0.0275696
0.027084
0.0268843
0.0267638
0.0263567
0.0261908
0.0260294
0.0259315
0.0255776
0.0289802
0.0336763
0.0289099
0.0291984
0.033933
0.185347
0.112758
0.0481282
0.0324677
0.031149
0.0317962
0.0312457
0.031147
0.0314782
0.0295903
0.0277148
0.0269433
0.0266473
0.0264701
0.0263172
0.0261955
0.0263242
0.0262417
0.026328
0.0299932
0.0956261
0.134695
0.0289699
0.029769
0.0364844
0.251363
0.134644
0.0539774
0.0367954
0.0342846
0.033616
0.0331997
0.0340513
0.036515
0.0399084
0.0423432
0.0465942
0.0533006
0.061357
0.0700464
0.0804084
0.0925196
0.104681
0.109528
0.239048
0.628528
0.732533
0.0289291
0.0295591
0.0358956
0.212621
0.228623
0.105634
0.0689716
0.0589203
0.0729687
0.124367
0.208023
0.303181
0.411215
0.531475
0.660012
0.782642
0.882368
0.955936
1.01497
1.05288
1.09473
1.13338
1.11851
1.1319
1.19754
0.0288181
0.0284405
0.0319781
0.0611506
0.197445
0.205442
0.169376
0.126428
0.132024
0.155019
0.209697
0.268161
0.318184
0.360634
0.402865
0.456847
0.520121
0.604641
0.677566
0.702887
0.72866
0.743284
0.777324
0.8129
0.895317
0.0294095
0.0274683
0.0278236
0.0353181
0.0707175
0.163582
0.200438
0.203655
0.18427
0.184006
0.192786
0.213769
0.247684
0.283167
0.308916
0.344197
0.381104
0.451033
0.500478
0.523138
0.550078
0.580838
0.640476
0.675822
0.714401
0.0290692
0.0277655
0.0264773
0.0278411
0.0359486
0.0743398
0.157369
0.225383
0.254617
0.251576
0.240353
0.2371
0.235529
0.235218
0.235797
0.248675
0.264302
0.286635
0.303654
0.313645
0.32789
0.35842
0.411357
0.448808
0.502981
0.0292937
0.0279046
0.0261479
0.0262058
0.0282318
0.0404481
0.0800251
0.165246
0.235032
0.276492
0.27341
0.247039
0.214237
0.181015
0.157494
0.146982
0.143032
0.136112
0.13064
0.130908
0.131135
0.139319
0.162655
0.196971
0.255936
0.0293276
0.0276721
0.0265163
0.0294362
0.0474557
0.101011
0.221213
0.339467
0.450132
0.561459
0.664058
0.736384
0.805417
0.868225
0.924356
0.971174
1.00725
1.03302
1.04958
1.05792
1.05944
1.05221
1.02766
0.971247
0.921209
0.029112
0.0275134
0.0272394
0.0346703
0.088692
0.103975
0.163671
0.357359
0.622035
0.919175
1.19892
1.45508
1.6698
1.83902
1.97548
2.06097
2.10904
2.13689
2.15044
2.14783
2.13222
2.10821
1.96561
1.62143
1.58672
0.0294114
0.0274196
0.027418
0.0445413
0.0624609
0.0442635
0.0439602
0.0666515
0.111237
0.170807
0.233195
0.296526
0.365402
0.435521
0.493375
0.539028
0.554749
0.57937
0.58091
0.577937
0.573952
0.559631
0.42153
0.383467
0.508953
0.0290775
0.0276556
0.0275516
0.0380516
0.0494012
0.0361048
0.0298323
0.0289269
0.0299325
0.0306856
0.029815
0.0289504
0.0288665
0.0291413
0.0290318
0.0288166
0.0286554
0.0284822
0.0284678
0.0284408
0.0284737
0.0286042
0.0318374
0.0507354
0.0730196
0.0290579
0.0276961
0.0275291
0.0339721
0.0441957
0.0341707
0.0301712
0.0322134
0.0459975
0.0424212
0.0345052
0.0300448
0.0288141
0.0282694
0.0275054
0.0267812
0.0262862
0.025988
0.025764
0.0256867
0.0256867
0.0257158
0.0254035
0.0259772
0.0278231
0.0293774
0.0277256
0.0272728
0.0315818
0.043234
0.0375416
0.0424428
0.281453
0.641679
0.184962
0.0746848
0.0529408
0.0468266
0.0371457
0.0300876
0.0272589
0.0263621
0.025988
0.0257323
0.0256752
0.0256486
0.0256483
0.0254249
0.0245357
0.0240244
0.029374
0.0277529
0.027159
0.0310404
0.0447995
0.0449055
0.0971488
2.94268
2.72724
0.504043
0.243188
0.283124
0.235383
0.117013
0.0532202
0.0299812
0.0265405
0.0259574
0.0257028
0.0256555
0.0256249
0.0256175
0.025413
0.0244728
0.0235741
0.0292771
0.0276695
0.0271159
0.0331239
0.0493512
0.0494769
0.161035
3.88472
2.74454
0.474752
0.246058
0.293655
0.290298
0.134711
0.0576733
0.0307614
0.0265722
0.0259354
0.0256913
0.025633
0.0256036
0.025631
0.0254102
0.024563
0.0234799
0.0293841
0.0274503
0.0274258
0.0392785
0.0552103
0.0489035
0.124153
4.45645
1.76294
0.351974
0.260326
0.343943
0.263512
0.128244
0.0524499
0.0297781
0.0264838
0.0259056
0.0256754
0.0256356
0.0256212
0.0256657
0.0254067
0.0246061
0.0235058
0.029376
0.0275411
0.0278718
0.0502792
0.0622962
0.0415611
0.0445262
0.205764
0.22979
0.101695
0.100883
0.168866
0.14719
0.0814551
0.039453
0.0281364
0.0263108
0.0258767
0.0256879
0.0256777
0.0256458
0.0256687
0.0254566
0.024613
0.0235408
0.0293175
0.0277659
0.0286633
0.0686291
0.0721068
0.0408094
0.031805
0.0338198
0.042344
0.0375344
0.0347491
0.0368298
0.0394807
0.03431
0.0291546
0.0269803
0.0262433
0.0258883
0.0257125
0.0256561
0.0256652
0.0256783
0.0254614
0.024482
0.0237548
0.029116
0.0281398
0.0299251
0.0937531
0.083567
0.0426818
0.0301451
0.0295527
0.031498
0.0316004
0.0302192
0.0298049
0.0294733
0.028656
0.027488
0.0266496
0.0262056
0.0259457
0.0257104
0.0256687
0.0257169
0.0257278
0.0255605
0.0247647
0.0250331
0.0289461
0.0285777
0.0316366
0.130914
0.0963233
0.0455064
0.0308206
0.0296603
0.0308364
0.0308206
0.0299206
0.0293795
0.028719
0.027785
0.0269836
0.0264547
0.0261798
0.0259422
0.0257207
0.0257297
0.0257462
0.0257827
0.0254783
0.029967
0.0357439
0.0289179
0.0292274
0.0340741
0.187083
0.115104
0.0495639