/*--------------------------------*- C++ -*----------------------------------*\
  =========                 |
  \\      /  F ield         | OpenFOAM: The Open Source CFD Toolbox
   \\    /   O peration     | Website:  https://openfoam.org
    \\  /    A nd           | Version:  6
     \\/     M anipulation  |
\*---------------------------------------------------------------------------*/
FoamFile
{
    version     2.0;
    format      ascii;
    class       volScalarField;
    location    "15";
    object      k;
}
// * * * * * * * * * * * * * * * * * * * * * * * * * * * * * * * * * * * * * //

dimensions      [0 2 -2 0 0 0 0];

internalField   nonuniform List<scalar> 
230684
(
1.42086
1.32564
1.21173
1.09316
1.04617
1.11785
1.65825
3.65218
3.6157
3.5371
3.54147
3.59261
3.69584
3.87041
4.12065
4.41235
4.7005
4.97198
5.22257
5.44456
5.66391
5.83262
5.95746
5.95786
5.87541
1.41905
1.32897
1.18852
0.978343
0.944111
1.43839
1.50965
2.46008
2.55413
2.66708
2.90911
3.28451
3.75433
4.28693
5.04514
5.90147
6.24639
6.64402
6.78513
6.97555
7.23057
7.09718
7.07583
8.96637
7.77993
1.42141
1.32314
1.21204
0.908868
1.52313
3.62848
1.47402
3.42879
4.12741
3.44008
3.0897
2.92516
2.8058
2.85159
3.30953
3.53235
3.47717
3.34595
3.20883
3.10967
3.047
2.97682
3.64617
4.20743
3.67092
1.44905
1.28459
1.09785
0.882812
0.787839
4.05043
3.56228
2.85731
2.69681
2.73701
2.70792
4.04821
1.75115
1.56294
1.45848
2.04557
2.10732
2.3072
2.39028
2.40702
2.42094
2.4132
3.34708
3.66572
2.9022
1.4204
1.32375
1.20121
0.898773
0.798547
1.62437
1.84942
2.45131
2.93973
3.14466
2.98859
2.94935
1.80963
1.58697
2.6707
3.19699
2.83039
2.69989
2.67299
2.61411
2.54797
2.52296
3.58288
3.85433
2.9941
1.42092
1.32324
1.2002
0.859576
0.700982
2.21888
1.17681
1.19335
2.83352
2.71992
2.47877
2.48474
2.44522
2.74158
2.40987
2.29738
2.14426
2.28352
2.396
2.57018
2.63956
2.62815
3.60666
3.90305
3.03688
1.42116
1.32349
1.20177
0.862838
2.67636
2.17576
1.0737
0.933392
1.06099
1.04388
0.992276
1.0682
1.19043
1.75461
1.73278
2.18554
2.46981
2.55957
2.56804
2.58329
2.5923
2.6154
3.67885
4.04743
3.13743
1.42181
1.32298
1.21075
0.917361
0.851315
1.30708
1.47594
4.67797
2.41854
1.28677
1.17023
1.08827
1.29734
3.64077
2.50583
1.88612
1.91398
2.13413
2.30848
2.48432
2.60219
2.69792
3.90505
4.11047
3.17653
1.42209
1.32237
1.21556
0.944833
0.853874
1.31231
1.9491
5.81608
1.82564
1.2663
1.13168
1.05836
3.30832
3.17706
2.29074
1.8175
1.85512
2.09875
2.30718
2.49448
2.61316
2.68211
3.85967
4.12559
3.18343
1.42168
1.32353
1.2142
0.945119
0.914409
1.38836
1.84288
2.08335
3.61532
2.26803
1.90008
1.42434
2.57689
2.98859
3.67106
3.43825
3.00642
2.71167
2.60915
2.61625
2.69715
2.75677
3.93839
4.14687
3.18115
1.42063
1.32553
1.2197
0.943816
0.93063
1.4555
1.55345
2.71819
1.32676
1.30473
1.29545
1.29389
1.32938
1.4502
1.52879
1.51639
1.65653
2.00312
2.25053
2.4179
2.60106
2.66617
3.5356
3.65483
2.8662
1.42007
1.32786
1.20975
0.939581
1.10826
1.79876
1.50728
1.5671
1.86298
1.20581
1.02334
1.19987
1.24128
1.11235
1.01657
0.996386
1.08648
1.73711
1.63237
1.30384
1.72481
1.93537
3.18598
3.59229
3.01744
1.42006
1.32957
1.202
0.936195
1.29105
1.70831
1.87323
2.76183
1.62178
1.36376
1.36673
1.61468
7.27586
2.43812
1.73832
1.39469
3.85109
2.33531
3.88575
1.9873
1.65732
2.28634
3.32977
2.65256
2.59583
1.42134
1.32717
1.19228
0.941268
1.60534
1.98615
2.36163
2.49105
2.45468
2.53645
2.51391
2.30637
2.20125
2.23809
1.95251
1.32339
1.69091
2.2486
2.51278
2.88281
3.15503
1.55549
1.23542
1.55432
2.01211
1.42469
1.32118
1.18623
0.928227
1.98572
2.20345
2.51431
2.81789
2.95274
3.04585
3.015
4.89079
2.01684
1.31329
1.84623
2.98893
2.92051
2.74078
2.8008
2.82844
2.94812
2.63888
2.36456
2.29461
3.12927
1.42028
1.32952
1.17564
1.06796
2.60389
2.88683
3.15793
3.62858
3.78528
3.75689
3.28408
3.15916
2.06141
1.51869
2.85949
3.20855
1.34511
4.91872
2.26359
2.32199
1.2498
1.16872
1.0937
3.78583
3.83047
1.42247
1.32849
1.16648
1.15424
1.58204
2.2424
2.21823
2.29193
2.85497
2.55902
2.24411
1.26603
3.1867
1.57416
1.69021
1.51673
1.35954
4.01868
1.76218
1.8913
1.31675
2.15546
3.25352
5.02467
4.92112
1.42378
1.32293
1.20703
1.08907
1.13002
1.25032
1.31802
1.74388
2.95993
3.64568
2.89477
1.90204
1.47012
1.52757
1.76672
2.18422
1.64568
1.88873
7.25804
3.03489
1.48516
5.07163
4.97448
4.99983
4.91871
1.42672
1.31569
1.22146
1.10461
1.04282
1.0912
1.09588
3.51802
3.00147
3.36386
3.1483
4.24141
2.99072
2.71272
2.21939
2.10964
2.08306
1.73522
6.45666
2.63033
4.59585
5.7334
5.2668
5.00676
4.78255
1.4327
1.30659
1.22109
1.12664
1.03782
1.02566
1.07904
1.25328
1.50707
1.78211
2.04305
2.06599
2.08498
2.59967
2.61846
2.57897
2.5103
2.26925
2.43657
2.63109
3.56173
3.84683
3.99426
4.00271
3.9526
1.47424
1.42813
1.34268
1.36847
1.53938
3.73961
5.96381
6.54596
6.47086
6.51306
6.78484
7.18916
7.55999
8.06695
8.7477
9.47522
10.1331
10.6157
10.9827
11.1893
11.5074
11.5496
11.6424
11.2953
10.8257
1.47527
1.42498
1.34671
1.35799
3.50089
4.14937
3.22208
6.44204
7.0274
7.92772
8.64068
9.35289
10.3863
11.7462
13.5568
15.1537
16.2001
16.6987
17.0795
17.3646
17.6976
17.8537
17.6446
15.9227
14.9455
1.47633
1.42296
1.35113
1.46999
6.86131
10.853
5.20015
3.84825
4.69686
5.66576
5.94491
7.14254
8.61204
8.91998
8.9146
8.79806
8.69221
8.6296
8.53388
8.32707
7.03921
6.42449
6.50941
1.48126
1.42172
1.31408
1.51063
3.28662
3.31164
2.88182
3.43874
4.46559
4.3726
3.27491
2.31453
2.2668
3.19574
4.13906
4.56388
4.72002
4.7167
4.34257
3.74095
3.57216
1.47454
1.42988
1.35256
1.34441
3.41366
6.46588
6.96994
5.53603
5.14296
4.66825
4.82318
5.78007
3.04737
4.21085
5.29042
5.24606
5.15578
5.03415
5.00814
4.58575
3.7875
3.43335
1.47503
1.42875
1.36808
1.36196
4.43737
7.38994
6.0176
4.38661
6.61888
5.33793
3.80284
2.72422
2.11747
2.88032
4.50483
5.35755
5.38105
5.18824
4.61204
3.82082
3.41413
1.47606
1.42497
1.36895
1.42467
6.09789
1.02983
2.45292
4.91912
3.77694
3.50427
3.83611
4.16241
4.46364
4.79662
5.03047
5.17549
4.76067
3.94777
3.48104
1.47484
1.42468
1.35634
1.35973
3.32642
4.05997
3.52884
4.21922
1.92619
4.35165
3.27578
3.20414
3.92325
4.50458
4.78115
5.0988
5.2838
5.3243
4.88096
3.96387
3.48776
1.47528
1.4244
1.34836
1.4161
2.34008
3.15312
6.10998
5.451
5.2211
3.44889
3.1949
3.82337
4.46952
4.91439
5.19197
5.26276
5.31895
4.8035
3.93559
3.47332
1.47647
1.42231
1.34509
1.53701
2.62767
3.04488
4.38742
11.1215
6.39149
5.4421
2.27519
1.39664
4.31746
7.79856
5.63847
4.30217
4.10204
4.21386
4.54866
4.90465
5.2271
5.39689
4.93879
3.96862
3.46215
1.47756
1.4195
1.34355
1.76286
3.4847
3.95562
7.36835
1.49404
3.18023
4.9336
4.22498
3.97339
4.02584
4.03718
4.05934
4.36831
4.87032
5.05059
4.4875
3.48017
3.1429
1.4736
1.42215
1.37053
2.14474
3.42512
4.01517
4.62702
3.11396
1.4318
2.60823
3.4218
5.0311
3.20326
3.19665
3.48169
3.16211
3.01559
3.04051
1.47017
1.43451
1.38426
2.67829
3.65087
3.30371
3.47316
7.92317
3.26808
5.396
4.37912
2.20029
1.03262
3.45477
2.97343
1.07244
2.2134
2.43496
2.61811
3.16563
2.64107
1.46691
1.44818
1.40653
3.26086
4.10903
3.51062
4.16477
4.48059
5.1138
4.68812
3.92222
5.45447
3.86164
5.18753
3.2856
1.80715
2.59037
2.85175
7.73811
1.7319
2.96875
2.08378
2.0429
1.4676
1.44896
1.44568
3.77274
4.57533
3.74958
4.32564
4.86236
5.3124
5.56928
5.53458
11.9326
4.70179
2.13101
2.20978
2.80089
5.1165
6.68425
5.52768
4.15765
1.8031
3.39112
2.66474
5.20157
1.46894
1.43867
1.4496
2.74588
5.34605
4.09003
4.28295
4.65734
4.87852
5.09956
5.36489
6.99961
5.96441
3.56491
4.23001
4.20341
3.34417
8.47796
8.77507
1.48053
1.40959
1.40218
1.69367
3.35432
4.1693
4.10784
4.01967
4.2483
4.49088
5.16819
7.28033
0.43426
2.18703
13.5439
5.41863
6.12585
5.81188
7.94321
10.2221
11.9925
11.5858
1.47658
1.42467
1.35263
1.3627
1.72182
2.96169
3.59336
6.96524
7.0555
6.2655
5.24017
4.11505
4.58476
7.29829
6.24369
5.28131
15.7402
8.80734
7.27444
14.7264
13.4245
12.6385
12.0215
1.47393
1.42444
1.35642
1.30903
1.37069
1.76833
3.03372
10.6428
7.34215
6.60793
6.29904
8.04939
7.87221
8.24995
8.10806
7.94998
15.1905
11.7033
16.1039
14.5111
12.9283
11.8363
10.8591
1.47762
1.42077
1.35533
1.30438
1.32983
1.43338
1.88174
3.12973
4.1843
4.79025
4.95801
5.06489
5.17331
4.98839
4.80473
4.34311
4.44376
5.94506
8.79883
7.92061
7.55705
7.91516
8.15487
8.18076
7.96805
1.47406
1.4368
1.40336
1.52558
1.81577
4.91235
7.11489
7.53571
7.82128
8.28323
8.86287
9.38415
9.89156
10.501
11.2214
11.9368
12.5018
12.9383
13.2055
13.3839
13.5475
13.5538
13.4884
13.2573
12.6009
1.47682
1.43355
1.40813
1.6156
4.27668
5.173
5.83642
7.3035
9.13758
10.6284
11.7027
12.5838
13.7807
15.3739
17.2199
18.7365
19.7464
20.3026
20.5966
20.8847
21.005
21.0836
20.6776
18.1777
17.5467
1.48091
1.43429
1.41906
1.90538
4.33609
7.85783
3.65193
2.63914
2.59933
2.69801
3.19591
3.99938
5.0321
6.56649
7.90718
8.3899
8.58904
8.55183
8.54251
8.48426
8.44702
8.37917
6.79554
6.44685
7.66126
1.48332
1.43837
1.41885
1.69586
2.63784
7.20848
3.76149
2.41704
1.97021
1.88318
2.18161
6.14862
3.32311
2.59623
2.29528
1.84278
1.68306
1.76715
1.94705
2.06482
2.11715
2.11017
2.0448
2.30016
2.74953
1.4839
1.44132
1.42521
1.68439
3.10087
4.7969
4.29619
3.64493
4.27602
2.97926
2.65426
6.62226
4.29728
2.36655
2.34919
2.02171
1.70615
1.74516
1.98186
2.13072
2.15191
2.1611
2.0264
2.04894
2.12713
1.48328
1.44595
1.45153
1.75014
9.49666
9.19908
5.24038
2.59774
3.52283
3.38765
2.64197
2.40074
2.01122
1.66176
1.64645
1.90418
2.12686
2.18855
2.16773
2.0173
2.01825
2.05337
1.48348
1.44036
1.44939
1.80692
15.796
2.36373
3.78922
5.60369
2.86383
1.88797
1.78749
1.84398
1.9201
2.01531
2.09142
2.13803
2.03238
2.02834
2.05431
1.47516
1.43844
1.42941
1.72527
3.15877
3.39076
4.52589
2.85169
5.39762
4.95731
2.54325
1.82945
1.88069
1.99489
2.0393
2.07655
2.1334
2.16436
2.04754
2.01376
2.03076
1.47624
1.43477
1.42273
1.82486
2.3454
2.58714
7.36805
1.4012
7.41857
4.85552
2.42484
1.81082
1.85842
1.97591
2.04631
2.10747
2.14031
2.1498
2.02812
1.99141
2.00612
1.48336
1.43094
1.42813
2.07081
2.53773
2.23205
3.58743
12.1889
7.39624
3.5412
2.72439
2.7326
5.4331
5.1996
2.65617
1.90055
1.83553
1.87717
1.96039
2.01803
2.1227
2.12771
2.04509
2.01612
2.01245
1.48352
1.43564
1.45106
2.49392
2.84944
2.58042
14.5077
3.93338
1.82301
1.71406
2.0704
2.81338
4.01908
4.69515
4.55775
3.51598
2.99565
2.22461
1.94234
2.00173
2.09594
2.1154
1.97366
1.90852
1.92496
1.47799
1.44736
1.48548
3.10964
2.97946
2.3853
4.56922
5.74525
2.83271
1.73866
1.89508
2.52302
2.40434
2.62396
2.4778
2.28956
3.05263
3.83446
2.18239
2.21687
1.96056
1.86312
1.77093
1.71976
1.82277
1.47248
1.46263
1.51996
3.71223
3.19495
2.1166
2.00503
2.54665
3.32258
6.46492
2.54494
2.46947
3.67184
2.54812
2.29097
1.94079
2.79708
2.42582
3.11468
2.47772
2.12203
1.8467
1.71082
1.597
1.69751
1.47208
1.48066
1.55182
4.35951
3.50988
2.18824
1.98473
2.06569
2.50797
2.36039
2.75431
3.17443
4.21602
2.81188
2.69989
2.05724
1.97165
1.89049
3.39383
2.72683
3.22537
1.96599
1.80504
2.1172
2.40285
1.4733
1.49525
1.58965
5.0565
3.87543
2.38742
2.12147
2.17375
2.35973
2.41297
2.55268
8.43389
6.13244
2.89148
2.11545
1.97229
1.94993
1.99363
2.53558
2.87361
2.57295
2.21756
3.04568
6.06815
7.18428
1.47196
1.47586
1.57442
4.0202
5.18225
3.39411
2.92399
2.86421
3.20375
3.98496
4.84392
8.59479
7.21417
6.69295
6.82992
6.91994
5.98394
8.01625
8.20498
7.92204
8.03422
8.36063
9.11619
12.1776
12.5037
1.47695
1.44666
1.51113
1.96162
4.10127
4.53014
4.21288
3.87051
4.55137
4.94518
5.50852
8.77209
9.41513
9.88171
10.6533
10.8088
12.3372
17.3924
16.2029
13.2898
12.8946
15.2496
15.9267
15.6459
15.1665
1.48467
1.42909
1.41958
1.5331
2.09369
3.8071
4.72084
7.44067
7.29608
7.66293
7.10557
6.68493
6.57189
7.38351
10.4794
13.8939
16.1704
23.0257
19.7961
15.4944
16.7534
18.0587
17.4587
16.8241
16.2455
1.47573
1.43864
1.39401
1.40661
1.56455
2.18336
4.11322
15.2007
9.86544
8.21721
8.23795
8.84613
8.66063
9.19102
9.1837
9.84085
11.6149
17.6845
16.7584
15.6113
17.177
16.8933
16.3698
15.5274
14.6603
1.47382
1.43937
1.38835
1.40299
1.47422
1.67987
2.43999
4.18401
5.54283
6.27112
6.55818
6.59223
6.35205
5.94881
5.69462
5.30542
5.72408
6.90467
7.97842
9.02344
8.16991
9.13814
10.0514
10.2906
10.3252
1.48265
1.43562
1.41764
1.56379
2.12125
4.13897
6.0906
7.40855
8.44983
9.40895
10.2638
10.9454
11.5508
12.1572
12.7625
13.3426
13.7891
14.1007
14.3109
14.4297
14.4949
14.467
14.314
13.8648
13.4202
1.48479
1.4309
1.42827
1.66175
3.4139
3.96357
4.64481
7.19361
9.91745
12.1305
13.7025
14.8477
16.165
17.7081
19.2705
20.5143
21.2656
21.655
21.8088
21.8991
21.9427
21.8604
21.2169
18.6966
18.413
1.4835
1.43561
1.44042
2.03986
2.89214
3.52003
2.64911
2.56446
2.89864
3.24443
3.58787
4.03338
5.0478
6.42819
7.58292
8.03428
8.28258
8.31426
8.28139
8.20287
8.1559
8.05404
6.62558
6.34444
7.97869
1.48122
1.44069
1.4428
1.80368
2.22506
2.7821
2.42308
1.95678
1.81978
1.7233
1.76385
2.50164
2.17972
1.92534
1.75874
1.58529
1.51431
1.50075
1.50897
1.51336
1.5165
1.52555
1.59576
1.92664
2.29438
1.48266
1.44377
1.44618
1.75023
2.4012
2.90638
2.75175
2.99968
4.07101
2.81943
2.21337
3.04962
2.62969
1.91414
1.73006
1.58716
1.47774
1.44638
1.45963
1.47079
1.47327
1.47664
1.47617
1.51118
1.58677
1.48431
1.44667
1.45716
1.75429
4.61735
5.64298
3.88966
11.7961
7.75134
5.17363
2.55921
2.39849
2.50392
2.21095
1.77457
1.58209
1.47488
1.44134
1.45521
1.47083
1.47393
1.47494
1.47132
1.47691
1.5106
1.48116
1.44442
1.45317
1.76166
5.07537
4.9731
4.68136
4.5073
3.09781
5.17162
2.60053
1.60104
1.46575
1.44992
1.4533
1.46113
1.46748
1.47155
1.47131
1.47398
1.49373
1.47757
1.44014
1.44259
1.78076
2.45497
2.94518
6.68884
2.0787
6.71921
4.99265
2.42621
1.59291
1.46944
1.46037
1.46135
1.4656
1.46803
1.47175
1.47179
1.47064
1.47986
1.48424
1.43406
1.44005
1.92683
2.31848
2.47613
8.05499
2.60694
8.82464
4.59438
2.19973
1.55644
1.46358
1.45966
1.46276
1.46762
1.46979
1.47031
1.47044
1.46769
1.47784
1.48489
1.43586
1.45132
2.19617
2.47256
2.06835
3.23241
10.3534
6.5083
3.05481
2.14759
2.59968
5.85346
4.2673
2.08105
1.55247
1.47245
1.46049
1.45866
1.46337
1.47004
1.47152
1.47152
1.47347
1.48327
1.48074
1.44363
1.47988
2.67455
2.69393
2.0698
3.90038
6.4555
3.72633
2.47348
2.13092
2.25734
2.78149
2.96821
2.62522
2.20202
1.97747
1.69386
1.51636
1.4991
1.48703
1.4784
1.47189
1.46402
1.47296
1.47425
1.45742
1.52272
3.31883
2.85315
1.90947
2.27113
3.76556
2.55889
2.24096
2.84466
2.84264
2.62337
2.82458
3.14925
3.15871
2.92615
2.5092
1.80762
1.75147
1.588
1.50894
1.47804
1.44705
1.46902
1.47174
1.47364
1.56529
3.89701
3.0824
1.84498
1.60727
1.80276
2.13363
2.28167
3.77147
2.97507
2.46011
1.86641
1.9429
1.99833
2.05154
1.89707
1.81836
1.86246
1.6784
1.55185
1.51458
1.51944
1.58384
1.47181
1.48926
1.60661
4.60563
3.36655
1.96531
1.60537
1.60365
1.77009
1.75322
2.12212
2.3481
2.36378
1.83049
1.75898
1.6292
1.59467
1.56687
1.76176
1.83004
1.72242
1.62735
1.63612
2.35227
2.90852
1.472
1.50541
1.65856
5.42054
3.74792
2.16293
1.75709
1.69816
1.7284
1.74446
1.93386
3.46523
3.92915
2.37992
1.89796
1.8552
1.91386
1.96691
2.12181
2.38057
2.39407
2.3835
3.71007
7.87646
9.12383
1.47376
1.49632
1.61942
4.58786
5.16962
3.30173
2.67129
2.53777
2.99895
4.03716
5.11962
6.91348
7.80712
8.06693
8.67601
9.53854
9.92088
10.5919
11.2034
11.1467
11.2442
11.6479
13.9042
14.4595
14.9803
1.47081
1.46056
1.55798
2.1062
4.53335
4.76738
4.31768
4.06269
4.40571
5.04139
5.62989
6.64074
7.05552
7.74382
9.96693
12.582
14.4501
15.7656
16.0669
15.574
15.4798
15.5001
15.928
16.3212
16.3883
1.48347
1.43424
1.44478
1.59475
2.30236
4.15086
4.93326
6.20715
6.21871
6.4718
6.96616
7.28045
7.23705
7.6061
8.69671
11.1062
13.5509
17.7418
18.2855
16.1052
16.5162
17.211
17.244
17.2608
17.0486
1.48194
1.43286
1.41577
1.45341
1.64415
2.37813
4.60014
7.75352
7.71382
7.57857
7.84601
7.80614
7.75369
8.03023
8.23732
8.81789
10.1538
13.7929
14.5332
12.6712
13.7231
14.9442
15.5804
15.4926
15.2327
1.47472
1.44096
1.40026
1.42438
1.5177
1.78364
2.76249
4.73354
6.21993
6.89897
7.16215
7.0378
6.60544
6.14982
5.71556
5.53949
5.56101
5.63975
5.69862
5.9518
6.4926
7.98966
9.55848
10.6927
10.9317
1.48101
1.43361
1.42247
1.54553
1.99418
3.6055
5.72972
7.48824
8.94856
10.2358
11.2954
12.0373
12.6351
13.1749
13.6954
14.1688
14.542
14.7929
14.9648
15.0521
15.0441
14.9647
14.7476
14.23
13.7657
1.48571
1.43085
1.43063
1.66458
3.14622
3.50908
4.52715
7.4039
10.4411
13.0463
15.0182
16.4613
17.89
19.3131
20.5393
21.4842
22.013
22.2293
22.2942
22.3122
22.226
22.0424
21.2277
18.7623
18.5968
1.48536
1.43482
1.44286
2.04338
2.51438
2.11823
2.0929
2.4994
3.05373
3.62634
4.08726
4.56912
5.45937
6.56601
7.46911
7.86511
8.14755
8.18141
8.14113
8.0534
7.9812
7.88517
6.5816
6.33655
8.08243
1.48119
1.44006
1.44561
1.83966
2.11387
1.81213
1.74218
1.6713
1.67369
1.65893
1.62
1.65662
1.65197
1.61049
1.5542
1.50018
1.48023
1.46852
1.46138
1.45783
1.45765
1.46441
1.53603
1.85067
2.22766
1.48499
1.44054
1.44591
1.74434
2.06759
1.94121
1.97248
2.41184
3.11493
2.4445
1.93906
1.83899
1.76157
1.61687
1.52047
1.46212
1.42949
1.41433
1.40835
1.40695
1.40711
1.4085
1.40397
1.40833
1.45068
1.48411
1.44291
1.44897
1.67472
2.42161
2.69028
3.24059
12.9518
7.72342
4.32982
2.50211
2.19296
2.21584
1.94918
1.61797
1.47481
1.42999
1.41306
1.40763
1.4066
1.40673
1.40658
1.40019
1.37301
1.36541
1.47949
1.44318
1.4463
1.66092
2.44101
2.8156
5.58464
7.42356
3.9249
4.67706
2.41275
1.54895
1.4303
1.41151
1.40569
1.40515
1.40534
1.40549
1.39993
1.36212
1.34957
1.47832
1.43984
1.4414
1.74575
2.19723
2.53741
7.0672
2.26374
7.29965
4.60998
2.35295
1.55774
1.42827
1.40878
1.40557
1.4051
1.40488
1.40534
1.39988
1.36908
1.34318
1.4854
1.43484
1.44283
1.92295
2.29879
2.36094
7.80617
4.3298
8.69359
4.51194
2.15838
1.52325
1.42349
1.40871
1.40566
1.40578
1.40596
1.4059
1.39965
1.36982
1.34392
1.48426
1.43765
1.45728
2.2137
2.4252
1.99507
2.79153
8.48832
5.39012
2.58282
1.74599
2.05819
5.79357
3.9234
1.92448
1.48971
1.42328
1.41092
1.40538
1.40575
1.40619
1.4066
1.40042
1.3708
1.34775
1.47852
1.44601
1.48646
2.69839
2.62817
1.86959
1.99385
2.86788
2.74803
2.08772
1.79996
1.94362
2.2105
1.96962
1.68826
1.56664
1.51579
1.4664
1.42432
1.41398
1.41151
1.4107
1.40469
1.36971
1.35445
1.47208
1.4616
1.53696
3.32322
2.83402
1.81419
1.7172
2.10987
1.98206
1.81939
1.85432
1.91342
1.80613
1.70543
1.69379
1.70349
1.6686
1.60677
1.49345
1.47213
1.44103
1.42209
1.41303
1.38989
1.38752
1.47192
1.47734
1.57863
3.93046
3.06484
1.83849
1.53686
1.59106
1.71221
1.72218
1.92775
1.94664
1.77118
1.57133
1.54821
1.55067
1.54868
1.52255
1.49745
1.50809
1.46421
1.43499
1.43037
1.49375
1.5889
1.47147
1.49305
1.63146
4.71118
3.37258
1.95062
1.58862
1.56762
1.6177
1.59957
1.69719
1.79094
1.68737
1.53075
1.488
1.46374
1.45607
1.4501
1.47111
1.49808
1.46193
1.46221
1.53142
2.54509
3.29977
1.47161
1.5099
1.686
5.57386
3.74783
2.14014
1.74373
1.67079
1.66121
1.6625
1.74316
2.09537
2.25667
1.97355
1.86697
1.93777
2.05658
2.17275
2.32843
2.52706
2.59436
2.65273
4.35795
9.25269
10.632
1.47451
1.50423
1.65271
4.82991
5.209
3.30009
2.62894
2.47307
2.90658
4.03657
5.26756
6.63259
7.77602
8.73052
9.92979
11.0441
11.8019
12.4966
13.1975
13.5045
13.7711
14.108
15.3139
15.8482
16.4132
1.47075
1.4662
1.57905
2.22391
4.63473
4.82035
4.38329
3.87342
4.13865
4.86103
5.72962
6.66015
7.14901
7.75372
8.54226
10.4091
11.8909
13.8049
14.5482
14.4258
14.3668
14.5169
14.9531
15.539
16.0511
1.48259
1.43608
1.4545
1.6247
2.44576
4.17425
5.17161
5.41821
5.27785
5.38494
5.80271
6.50282
6.94529
7.30893
7.78603
8.88581
10.3346
12.6377
13.3656
13.3976
13.5914
14.3078
14.9909
15.2843
15.3889
1.48606
1.43066
1.41977
1.46824
1.70673
2.62464
4.40414
6.19173
6.83702
6.87091
6.84666
6.90292
6.91957
7.0318
7.14989
7.57113
8.05279
9.22045
9.55156
9.69241
10.1757
11.2786
12.3886
13.0221
13.1379
1.47624
1.44037
1.40328
1.42919
1.53449
1.83703
3.02146
4.89505
6.34099
7.11977
7.14779
6.83878
6.26948
5.68638
5.2051
4.92279
4.88421
4.86224
4.81081
4.79332
4.96552
5.71664
7.22916
8.5387
9.28519
1.4743
1.43758
1.42441
1.53266
1.94499
3.44335
5.72951
7.77414
9.4232
10.8433
12.0244
12.8561
13.4079
13.9355
14.4126
14.8249
15.1347
15.3409
15.4511
15.4804
15.4417
15.3247
15.0667
14.5208
14.0093
1.48554
1.43077
1.43147
1.65491
3.06266
3.4248
4.69904
7.73718
10.8523
13.5984
15.85
17.5439
19.0295
20.3748
21.3421
22.0758
22.4625
22.5855
22.6008
22.5322
22.4221
22.1545
21.2617
18.7555
18.6353
1.48054
1.43735
1.44432
2.02846
2.444
1.92214
1.9469
2.45175
3.10322
3.81399
4.50992
5.11202
5.91299
6.82067
7.49023
7.82566
8.05062
8.09184
8.02833
8.05365
7.98795
7.92023
6.61134
6.36408
8.13017
1.48167
1.43846
1.44575
1.84369
2.10164
1.66944
1.54816
1.54514
1.58259
1.5975
1.55225
1.51193
1.51524
1.51879
1.50123
1.47893
1.47069
1.46194
1.45704
1.4546
1.45571
1.46127
1.53127
1.84907
2.23794
1.48098
1.44018
1.44506
1.74161
2.00372
1.65416
1.63479
1.91443
2.36145
2.09742
1.77365
1.58855
1.54718
1.51471
1.47145
1.43822
1.42049
1.41085
1.40521
1.40328
1.40314
1.4045
1.39627
1.39629
1.43511
1.48089
1.44105
1.44309
1.64326
2.0034
1.89049
2.46365
10.1773
6.68319
3.57152
2.48433
2.10094
2.05563
1.77659
1.54922
1.45118
1.42143
1.40943
1.4041
1.40288
1.40232
1.40227
1.39445
1.36007
1.34279
1.47914
1.44049
1.4399
1.6205
2.04181
2.13251
4.7438
12.0074
3.97915
2.99139
1.9712
1.50566
1.42406
1.40881
1.40289
1.40277
1.40166
1.40145
1.3946
1.35672
1.32521
1.47838
1.43905
1.43888
1.71611
2.13465
2.24757
6.42064
4.44779
5.12212
3.364
2.05449
1.52295
1.42335
1.40638
1.40273
1.40144
1.40088
1.40113
1.39469
1.35751
1.32074
1.48534
1.43505
1.44335
1.906
2.26989
2.19096
6.67357
3.95245
5.35635
3.43311
1.98972
1.50328
1.42076
1.40615
1.40281
1.40206
1.40199
1.40184
1.39484
1.35849
1.32244
1.48359
1.43841
1.4596
2.21006
2.40044
1.90555
2.33842
6.46728
4.21341
2.26477
1.7331
2.95422
4.38945
2.86887
1.75946
1.46921
1.41722
1.40635
1.40224
1.40185
1.40223
1.40211
1.39579
1.35961
1.32574
1.47736
1.44725
1.48788
2.68445
2.60002
1.79903
1.6783
1.90681
2.12549
1.84743
1.69515
1.83278
1.95614
1.73597
1.53161
1.45162
1.4263
1.41408
1.40491
1.40314
1.4036
1.40407
1.39888
1.36283
1.33584
1.46997
1.46569
1.53935
3.26581
2.82767
1.7927
1.56423
1.61418
1.69566
1.64931
1.58637
1.58815
1.57872
1.52703
1.47745
1.45379
1.44214
1.4333
1.41455
1.41048
1.40888
1.4068
1.40206
1.37359
1.38159
1.47201
1.47955
1.58447
3.9302
3.0765
1.85695
1.52884
1.53496
1.59702
1.58949
1.57524
1.58337
1.54631
1.4848
1.45168
1.43726
1.43047
1.42477
1.41495
1.41767
1.4131
1.41083
1.40569
1.49852
1.62158
1.47133
1.49513
1.64499
4.78809
3.40941
1.96659
1.59876
1.57321
1.59217
1.57337
1.57369
1.57843
1.51716
1.45911
1.43874
1.43108
1.42635
1.422
1.41952
1.42374
1.41923
1.42175
1.51678
2.71803
3.59625
1.47168
1.51293
1.6997
5.68803
3.78234
2.15374
1.75311
1.67799
1.65312
1.6389
1.65876
1.73539
1.81074
1.83896
1.90037
2.0286
2.17518
2.33694
2.54739
2.76469
2.8468
2.93357
4.9275
10.236
11.7314
1.47501
1.50861
1.66904
4.96155
5.27164
3.31907
2.62463
2.42365
2.7869
3.87314
5.21916
6.60086
7.97711
9.47569
10.867
12.0534
13.0037
13.8663
14.5874
15.0894
15.5231
15.8397
16.3269
16.7717
17.3425
1.47101
1.46906
1.58961
2.29358
4.7295
4.90911
4.44449
3.84241
4.02313
4.68576
5.70276
6.72057
7.43499
7.96011
8.53163
9.43409
10.4189
11.7502
12.5969
12.8667
13.1864
13.4167
13.7698
14.198
14.9909
1.48211
1.43691
1.45966
1.64446
2.51014
4.30742
5.10798
5.21234
4.96088
5.0432
5.22062
5.63314
6.18205
6.66487
7.02684
7.53355
8.22334
9.29852
10.0921
10.4806
10.7348
11.2148
11.7626
12.0057
12.3873
1.48627
1.43076
1.42111
1.46714
1.74765
2.75568
4.5323
5.88543
6.41946
6.34029
6.16119
6.06773
6.0169
5.99123
5.99143
6.07829
6.22499
6.54001
6.79066
6.92603
7.18676
7.58612
8.34677
8.8281
9.43499
1.47625
1.44
1.40404
1.43146
1.54414
1.86856
3.18934
5.04322
6.42449
7.15636
7.07695
6.61255
5.87935
5.1609
4.58691
4.14703
3.93905
3.99039
3.89164
3.84099
3.79481
3.98587
4.60562
5.39209
6.29338
1.47361
1.43781
1.42489
1.52923
1.9359
3.39429
5.89071
8.11568
9.83581
11.309
12.5691
13.468
14.0198
14.5284
14.9789
15.3548
15.6234
15.8098
15.886
15.8788
15.808
15.6588
15.3713
14.8212
14.2163
1.48229
1.43253
1.43322
1.6514
3.04095
3.43899
4.92646
8.06265
11.1715
13.9201
16.2997
18.1708
19.7125
20.9817
21.874
22.4609
22.7642
22.8449
22.8086
22.6734
22.5249
22.2227
21.2982
18.8112
18.6686
1.47938
1.43713
1.44515
2.03645
2.44779
1.93018
1.9511
2.43247
3.13856
3.92308
4.70993
5.40106
6.27494
7.044
7.49951
7.83335
7.9806
8.04475
8.02844
8.05552
8.01533
7.89641
6.60427
6.36746
8.17268
1.48181
1.43722
1.44559
1.84771
2.10606
1.67251
1.51471
1.49862
1.53587
1.55485
1.52294
1.49166
1.48946
1.49476
1.48434
1.47327
1.46712
1.45931
1.45665
1.4558
1.45715
1.46293
1.53517
1.88283
2.29293
1.48098
1.43789
1.44359
1.73514
1.99946
1.62782
1.53371
1.61927
1.89653
1.82241
1.64363
1.52407
1.49546
1.47975
1.45499
1.43265
1.4184
1.41037
1.40559
1.4035
1.40374
1.40467
1.40007
1.42438
1.47839
1.48155
1.43705
1.43921
1.64048
1.94212
1.73886
1.90346
4.60999
4.85332
2.77917
2.01326
1.7658
1.74702
1.6116
1.49641
1.44128
1.41919
1.40942
1.40482
1.40326
1.40295
1.403
1.39738
1.38005
1.38223
1.48058
1.43683
1.43646
1.61879
1.97774
1.93972
2.93718
14.7551
8.88908
3.46259
2.12114
2.16452
2.33472
2.03091
1.66005
1.46832
1.42113
1.40895
1.40352
1.40271
1.40184
1.40191
1.39668
1.37788
1.36279
1.47885
1.43748
1.43762
1.70462
2.10587
2.06766
3.95219
15.1275
8.91452
3.2943
2.07155
2.08768
2.95841
2.46466
1.78626
1.48752
1.42121
1.40768
1.40323
1.40209
1.40144
1.40152
1.39647
1.37188
1.35992
1.48386
1.43552
1.44418
1.8956
2.24718
2.03291
3.60549
12.9092
6.83817
2.7909
2.02105
2.32519
3.02166
2.472
1.75769
1.47879
1.42001
1.40719
1.40315
1.40197
1.40226
1.40263
1.39674
1.37306
1.36081
1.48296
1.4388
1.46121
2.20772
2.3898
1.82192
1.92495
3.3974
3.00845
2.06178
1.90101
2.54002
2.54637
2.02111
1.606
1.45391
1.41658
1.40624
1.40318
1.40279
1.40304
1.40247
1.39823
1.37538
1.36316
1.4767
1.44811
1.48838
2.65987
2.59343
1.76897
1.5767
1.65069
1.81268
1.69651
1.61071
1.6739
1.71432
1.60219
1.48997
1.43599
1.41616
1.40728
1.40333
1.40287
1.40356
1.40387
1.40013
1.38427
1.37244
1.46994
1.46689
1.54194
3.23027
2.827
1.79854
1.51794
1.52017
1.58614
1.58219
1.53825
1.52778
1.51895
1.4909
1.45321
1.42819
1.41635
1.40925
1.40323
1.40354
1.40485
1.40541
1.40175
1.39932
1.421
1.47216
1.4804
1.58873
3.9541
3.10282
1.87691
1.53758
1.52397
1.56168
1.55931
1.53098
1.51538
1.49387
1.46346
1.43869
1.42402
1.41602
1.40983
1.40466
1.40566
1.40642
1.40698
1.40486
1.53414
1.69177
1.47145
1.49611
1.64895
4.81512
3.44376
1.99821
1.61362
1.57951
1.58707
1.57082
1.54883
1.52376
1.48235
1.44864
1.4337
1.42685
1.4211
1.41671
1.41315
1.41413
1.41495
1.41654
1.52286
2.9182
3.85618
1.47217
1.51615
1.71393
5.76303
3.81416
2.18076
1.76628
1.68355
1.65004
1.62705
1.62485
1.65188
1.71185
1.8131
1.93656
2.08736
2.24544
2.44293
2.68925
2.91948
3.02054
3.1157
5.27933
10.8865
12.5379
1.47536
1.51188
1.68307
5.10758
5.34389
3.34361
2.61557
2.38241
2.67024
3.67126
5.09499
6.5797
8.20106
9.94207
11.4363
12.6507
13.7615
14.7492
15.5608
16.1605
16.6424
16.9136
17.0907
17.377
18.1152
1.47123
1.47249
1.60081
2.37971
4.85481
5.0433
4.50164
3.90103
4.10468
4.66339
5.74439
6.82453
7.69114
8.3668
8.87545
9.48265
10.1192
10.9386
11.6538
12.0649
12.5326
12.7986
13.0209
13.2679
14.0902
1.48185
1.43784
1.46531
1.67346
2.58417
4.47233
5.24027
5.32098
5.0151
5.02385
5.09413
5.39751
5.72047
6.17879
6.52331
6.81918
7.16372
7.54829
7.97282
8.36628
8.58972
8.90094
8.98987
8.98778
9.48207
1.48614
1.43091
1.42213
1.47073
1.78333
2.88981
4.71288
5.96734
6.42029
6.2524
5.81374
5.61251
5.3154
5.13348
5.11241
5.1145
5.02148
5.15751
5.13418
5.07597
5.13571
5.16321
5.13964
5.3223
5.89761
1.47618
1.43972
1.40391
1.4304
1.54793
1.89492
3.33148
5.248
6.59601
7.22575
7.01784
6.43847
5.54568
4.82066
4.06042
3.775
3.52789
3.46388
3.38091
3.2615
3.14262
3.15243
3.21554
3.33086
3.82876
1.47334
1.43768
1.42591
1.53321
1.96382
3.47726
6.16782
8.51397
10.2861
11.7587
13.0079
13.9328
14.5175
15.0492
15.5075
15.8709
16.1241
16.291
16.3484
16.3212
16.2258
16.0468
15.733
15.1483
14.4133
1.47671
1.43612
1.4365
1.66343
3.06254
3.51068
5.26946
8.50485
11.5507
14.2537
16.6532
18.6363
20.2418
21.5236
22.4431
22.9229
23.0911
23.1444
23.0712
22.8838
22.6584
22.306
21.3586
18.9884
18.8582
1.47901
1.43661
1.44651
2.07331
2.48456
1.97461
2.0137
2.49141
3.15455
3.94587
4.74573
5.49573
6.51442
7.1098
7.46164
7.70672
7.84157
7.95218
7.98157
7.9463
7.87838
7.76834
6.50709
6.38454
8.30537
1.48078
1.43659
1.44643
1.88364
2.14164
1.70568
1.53339
1.50816
1.53027
1.54713
1.52564
1.50435
1.50531
1.50558
1.49706
1.48744
1.47965
1.474
1.47143
1.47035
1.47036
1.47731
1.57267
2.00388
2.44106
1.47929
1.43707
1.4434
1.7529
2.02042
1.65133
1.51546
1.52558
1.64485
1.66202
1.58199
1.51688
1.49604
1.48339
1.46521
1.44716
1.43416
1.42617
1.42115
1.4191
1.41924
1.42042
1.43791
1.53542
1.60875
1.48025
1.43548
1.43795
1.66416
1.95624
1.7045
1.68101
2.22653
2.70879
2.08736
1.72924
1.5973
1.58559
1.53852
1.48637
1.45281
1.43486
1.42509
1.42075
1.41872
1.41842
1.41883
1.43304
1.49828
1.4994
1.47991
1.43502
1.43513
1.64216
1.98055
1.82455
2.02369
4.60176
4.7441
2.51581
1.75209
1.68821
1.86148
1.73996
1.5589
1.46658
1.4357
1.42535
1.41962
1.41838
1.41775
1.41766
1.43187
1.4857
1.48047
1.47912
1.43627
1.4376
1.71736
2.09351
1.91672
2.32282
6.31975
4.97099
2.49547
1.7217
1.71161
2.11779
1.95855
1.63584
1.48073
1.43605
1.4242
1.41962
1.41808
1.41694
1.41745
1.43157
1.48423
1.47613
1.4815
1.43668
1.44679
1.91541
2.24524
1.8729
2.16103
4.97197
3.94048
2.19581
1.68402
1.78759
2.1709
1.95186
1.62348
1.47616
1.43512
1.42358
1.41909
1.41792
1.41766
1.41857
1.43262
1.48437
1.47562
1.48217
1.43915
1.46449
2.23638
2.40666
1.77198
1.70084
2.11736
2.16213
1.79248
1.65082
1.78963
1.90436
1.72404
1.54292
1.46005
1.43212
1.42245
1.4198
1.4185
1.41887
1.41917
1.43401
1.48372
1.47553
1.47619
1.44892
1.49198
2.66322
2.61289
1.7654
1.54075
1.56057
1.65472
1.61764
1.5667
1.57748
1.59038
1.54382
1.48542
1.44836
1.43069
1.42261
1.4194
1.4187
1.41927
1.41977
1.43519
1.48675
1.48327
1.46995
1.4677
1.54983
3.2765
2.8615
1.82115
1.52246
1.51515
1.55966
1.56806
1.5418
1.52641
1.51291
1.49173
1.46435
1.44242
1.42972
1.42262
1.419
1.41871
1.41999
1.42124
1.43667
1.50681
1.53112
1.4722
1.48072
1.59569
4.03759
3.16493
1.91187
1.55995
1.54041
1.56477
1.56231
1.53997
1.51862
1.49711
1.47389
1.45349
1.4398
1.43018
1.42316
1.42014
1.41961
1.42033
1.42211
1.44097
1.64305