/*--------------------------------*- C++ -*----------------------------------*\
  =========                 |
  \\      /  F ield         | OpenFOAM: The Open Source CFD Toolbox
   \\    /   O peration     | Website:  https://openfoam.org
    \\  /    A nd           | Version:  6
     \\/     M anipulation  |
\*---------------------------------------------------------------------------*/
FoamFile
{
    version     2.0;
    format      ascii;
    class       volScalarField;
    location    "15";
    object      nut;
}
// * * * * * * * * * * * * * * * * * * * * * * * * * * * * * * * * * * * * * //

dimensions      [0 2 -1 0 0 0 0];

internalField   nonuniform List<scalar> 
230684
(
0.940003
0.901429
0.889354
0.825389
0.397426
0.365824
0.435565
1.44813
1.51469
1.50292
1.49242
1.48736
1.48836
1.50435
1.53484
1.57387
1.61953
1.66196
1.70728
1.74702
1.78437
1.81289
1.83461
1.84199
1.83699
0.936954
0.909559
0.427384
0.396161
0.172793
0.21794
0.105697
0.586481
0.593012
0.60729
0.606369
0.66268
0.707304
0.762808
0.828842
0.896231
0.934018
0.973259
0.97779
0.987215
1.01115
0.991001
0.947994
2.25386
2.16565
0.939029
0.905184
0.434537
0.193193
0.234767
0.2603
0.152849
0.328737
0.398477
0.363105
0.339398
0.323411
0.310733
0.322845
0.348081
0.369551
0.369739
0.365068
0.359374
0.35349
0.349789
0.348095
0.752818
1.60666
1.62538
0.986097
0.43504
0.200954
0.167373
0.148039
0.243539
0.204545
0.344928
0.325551
0.315686
0.293278
0.146952
0.110717
0.100426
0.0765522
0.276656
0.27781
0.289523
0.294631
0.294254
0.29271
0.294537
0.67159
1.44839
1.32355
0.937935
0.905366
0.431031
0.18559
0.151769
0.224126
0.248182
0.29191
0.332601
0.331482
0.286844
0.118763
0.113116
0.101361
0.104869
0.385922
0.355994
0.325635
0.317884
0.313119
0.306512
0.300585
0.705414
1.49813
1.33227
0.93794
0.90685
0.431933
0.181761
0.0717162
0.202759
0.139324
0.138143
0.315188
0.330984
0.309013
0.281498
0.256066
0.281683
0.100494
0.292449
0.27129
0.283955
0.286747
0.298568
0.306755
0.307814
0.723633
1.50309
1.32495
0.938046
0.906395
0.432219
0.182564
0.161229
0.202504
0.133449
0.110259
0.125561
0.127068
0.128181
0.128747
0.111636
0.303212
0.250147
0.277832
0.296437
0.299825
0.299137
0.297465
0.297575
0.299564
0.674643
1.52781
1.33184
0.937739
0.905782
0.433343
0.190021
0.160775
0.195808
0.214904
0.220023
0.224969
0.148554
0.142489
0.135771
0.100987
0.366813
0.331075
0.264283
0.256513
0.267454
0.277662
0.286805
0.294989
0.302748
0.728845
1.5111
1.35614
0.937894
0.9031
0.433981
0.193671
0.163382
0.198723
0.250222
0.320921
0.195031
0.149683
0.140681
0.129902
0.333303
0.368927
0.313955
0.258287
0.248512
0.262149
0.271761
0.283804
0.293297
0.300882
0.740943
1.51025
1.35862
0.937277
0.904004
0.432093
0.194298
0.167926
0.203616
0.245568
0.14118
0.327481
0.250574
0.232234
0.136149
0.324609
0.306802
0.348542
0.356553
0.334294
0.311967
0.303595
0.299349
0.301793
0.305501
0.756419
1.5378
1.34585
0.937645
0.899611
0.438706
0.194311
0.156091
0.0651951
0.0930179
0.220681
0.138566
0.138544
0.137901
0.121301
0.0970246
0.217228
0.233412
0.237184
0.245119
0.259789
0.270029
0.281909
0.294907
0.299703
0.643467
1.41303
1.3057
0.935128
0.905805
0.437681
0.193368
0.184411
0.233986
0.118646
0.23753
0.142371
0.131402
0.121605
0.116174
0.133881
0.127504
0.11906
0.11724
0.10791
0.243654
0.11481
0.103841
0.232671
0.265873
0.657894
1.31653
1.31749
0.932519
0.910075
0.438766
0.186505
0.206885
0.243445
0.255431
0.324356
0.154567
0.137403
0.119116
0.0996417
0.495854
0.152307
0.0858075
0.108821
0.111647
0.217854
0.194698
0.146412
0.126261
0.306809
0.722992
0.662318
1.21462
0.931392
0.912393
0.434597
0.184627
0.238371
0.272664
0.292224
0.305491
0.301899
0.293715
0.30474
0.261519
0.263793
0.248871
0.230444
0.0722669
0.231979
0.275557
0.116173
0.296418
0.174733
0.136446
0.102149
0.244363
1.1015
0.931134
0.915501
0.429951
0.177028
0.262127
0.300241
0.301635
0.325482
0.337917
0.343557
0.337793
0.354742
0.122983
0.0849619
0.187157
0.286881
0.339684
0.320705
0.295204
0.299329
0.304398
0.148363
0.123912
0.286128
1.36091
0.929745
0.916719
0.435064
0.356185
0.56965
0.66748
0.66791
0.732598
0.766964
0.771893
0.362385
0.110999
0.121959
0.0797245
0.24345
0.293932
0.17578
0.897064
0.293026
0.156437
0.11442
0.10309
0.181318
1.4956
1.60012
0.931976
0.914889
0.85287
0.789415
0.786799
1.04086
0.518083
0.595707
1.34757
0.666267
0.315373
0.194398
0.158431
0.0891314
0.0957776
0.182667
0.153972
0.427802
0.130561
0.246076
0.100755
0.247449
0.696934
1.78844
1.78947
0.937349
0.901539
0.885012
0.81223
0.740775
0.376896
0.197064
0.231038
0.663113
1.48794
0.689334
0.280933
0.233991
0.199102
0.225855
0.227776
0.243144
0.257931
0.303402
0.376137
0.116083
1.9594
1.87342
1.88
1.82031
0.939794
0.89684
0.880635
0.845363
0.766005
0.732175
0.370995
0.347701
0.626098
1.36499
0.692126
0.367228
0.228263
0.646809
0.595529
0.571495
0.573873
0.250289
0.315914
0.345526
0.884128
2.13249
1.98105
1.90209
1.84411
0.940442
0.897736
0.868995
0.853031
0.798678
0.766754
0.744547
0.768779
0.845047
0.932407
1.04759
0.537648
0.550339
1.28863
1.31207
1.28915
0.635721
0.29559
0.313938
0.641847
1.41419
1.52489
1.62563
1.65405
1.66131
5.29469
4.44456
3.70793
3.45298
2.90704
5.40037
7.61536
7.8942
7.88145
7.91514
8.3196
8.93627
9.3532
9.92369
10.6974
11.4619
12.0684
12.3234
12.3827
12.188
12.291
11.6107
11.6996
11.1854
10.6055
5.28336
4.43858
3.27963
2.66365
2.52354
1.13224
0.420975
1.8319
3.17115
4.81502
6.64055
8.30384
9.68995
11.0777
12.3897
13.0311
13.1001
12.712
12.3866
12.2188
12.2998
12.2821
11.942
11.5955
11.2037
5.25757
4.3101
3.20088
2.35582
2.99947
1.898
1.28661
1.63932
2.81172
3.74593
3.96832
5.4315
6.78172
7.06309
7.06415
6.88922
6.77801
6.76031
6.62214
6.54193
5.86604
5.74095
6.02673
5.3124
3.79647
2.7704
1.58644
2.10118
1.3092
2.35706
3.37955
3.54226
0.651293
1.50201
1.86012
2.32194
3.03882
3.5472
3.56787
3.48379
3.3367
3.29707
3.26199
3.29552
5.18448
4.20233
3.00054
1.92638
2.567
2.07299
3.09077
3.82477
4.24299
4.20858
3.74056
0.758552
1.1719
1.78532
2.3748
3.00215
3.37792
3.42446
3.43773
3.40664
3.13574
3.08023
5.1685
4.11804
3.01485
1.96943
2.12905
2.1361
2.69615
3.26994
2.01548
1.19975
1.41312
0.943972
1.54209
2.37892
3.02419
3.47948
3.48997
3.40384
3.33711
3.23828
2.98759
5.19682
4.17544
3.07015
2.03595
1.09895
0.159828
0.344876
2.33686
2.6726
2.99344
3.35863
3.46466
3.48093
3.48652
3.47526
3.45886
3.42643
3.34016
2.98755
5.23073
4.37808
3.01538
2.15487
2.16524
1.98769
1.84485
0.246605
0.73951
2.29756
2.27965
2.49514
3.29934
3.50046
3.48593
3.53454
3.52809
3.45936
3.45413
3.18532
3.00517
5.2617
4.41837
3.08705
2.44229
4.46086
4.84019
5.31825
2.4923
3.07166
2.27472
2.31124
3.08207
3.43088
3.50135
3.54794
3.51371
3.48767
3.37767
3.14541
3.02884
5.28756
4.36112
3.19868
2.70531
4.79493
4.65484
4.24386
3.42003
1.34773
2.17288
0.817056
0.181786
1.04677
3.89891
3.67265
3.19392
3.18296
3.27755
3.42473
3.48888
3.51459
3.54076
3.50919
3.23653
3.0653
5.31211
4.37289
3.2819
3.03635
4.06328
0.448338
2.04472
0.188411
0.928298
2.04279
2.05884
2.35038
2.6909
2.97392
3.10176
3.37696
3.6567
3.49766
3.32663
3.01495
2.94476
5.30749
4.52162
3.46828
3.62846
5.13485
1.73994
1.04836
0.625808
0.145162
0.281559
0.925959
0.927027
0.797355
1.72049
2.30897
2.10778
2.05177
2.29687
5.28659
4.64267
3.20873
4.27452
5.82194
4.84384
2.01757
2.25802
0.342846
1.63284
0.798876
0.281162
0.23253
0.477824
0.945852
0.0675651
0.286352
1.20725
1.53358
1.77844
1.95175
5.26352
4.57286
3.55143
4.72498
6.12838
5.00202
4.61262
3.91638
3.34367
3.17715
2.18766
2.32174
0.6033
1.8912
0.666923
0.237937
1.51576
2.1103
1.05875
0.321998
0.793878
0.8201
2.12795
5.27483
4.63641
3.63456
5.03501
6.36031
5.13929
4.57553
4.32657
4.3145
4.13798
3.81854
2.59837
0.590369
0.546753
1.1183
1.73644
2.36523
2.74992
1.94332
1.16751
0.309426
1.05093
1.3303
5.4827
5.28325
4.6235
3.64257
5.02203
7.09795
5.66484
4.9382
4.4165
4.14976
4.17623
3.82851
0.3386
0.633121
1.32654
1.8023
1.49006
0.627623
8.17193
9.59948
5.35731
4.42969
4.11732
4.17875
6.14342
6.5155
5.54695
4.63291
4.54747
4.34027
4.35698
2.85527
0.107595
0.106952
5.21882
0.681934
2.43429
3.7058
6.3219
9.22787
11.5701
11.7232
5.34311
4.55882
3.97209
3.74533
4.33592
5.14617
4.65633
1.5349
2.40543
2.87986
3.0131
2.59525
2.37663
0.418146
1.20374
0.944552
6.45181
1.57313
1.25247
10.0624
10.5563
10.8426
10.8229
5.33225
4.56518
4.02015
3.67803
3.64236
4.29846
5.49471
0.562061
1.58018
3.12548
3.56448
2.03819
2.66274
5.58277
5.5737
6.0546
5.12227
1.87857
6.84696
10.0986
10.2657
10.172
9.92878
5.34809
4.54253
4.01382
3.67389
3.68423
3.79899
4.31068
6.08516
6.60631
5.82718
5.49568
5.03263
4.98432
5.75504
5.61755
4.84817
4.82464
4.47923
1.40806
4.52317
7.24763
8.45921
9.06492
9.30202
9.13566
6.62591
6.33477
5.95976
6.03269
5.6558
9.25522
11.9499
12.6145
12.7313
13.1517
13.9147
14.5379
15.0856
15.7973
16.6385
17.364
17.7343
17.885
17.7156
17.4619
17.3049
16.8694
16.5862
16.5205
15.4729
6.64701
6.31318
5.87782
5.75423
8.17452
5.36445
6.82875
8.27133
9.36566
11.1967
12.92
14.0288
15.3638
16.9589
18.2914
18.8822
19.1593
19.0071
18.4091
18.0618
17.7761
17.6875
17.6109
16.1925
16.1227
6.67108
6.28306
5.91402
6.24558
3.07173
2.02533
1.96134
2.7508
3.36225
4.44136
5.82994
6.51611
7.51775
9.30836
10.198
10.0399
9.93055
9.27079
9.19058
9.05016
8.99313
8.93954
7.91266
8.05231
9.27507
6.69049
6.32978
5.85282
5.77405
5.59275
2.1036
2.65632
4.25383
4.73075
5.18063
5.6395
1.86209
1.76223
3.62769
4.22354
4.32179
4.91744
5.12966
4.84504
4.46223
4.18419
3.91505
4.10438
4.28245
4.58193
6.67889
6.22811
5.75328
5.69631
6.27047
1.83826
3.29359
3.75776
3.55915
4.32384
5.42824
1.96292
1.83738
2.58836
3.47526
3.32965
3.68377
3.86514
4.15069
4.10149
3.8808
3.88511
3.97338
3.9448
3.72803
6.66769
6.21197
5.80306
5.72926
5.88004
1.52934
1.76717
2.86372
4.11764
2.7928
3.67004
3.26932
3.03049
3.94254
4.73462
4.49471
4.12045
3.83406
3.73831
3.90487
3.89807
3.60209
6.6796
6.21645
5.85113
5.16333
2.62452
0.282806
1.03791
3.86821
3.60877
4.59535
4.92836
4.83146
4.51902
4.2587
4.02446
3.79725
3.90608
3.86888
3.54193
6.61792
6.32004
5.79892
5.95453
3.20885
2.44443
3.56473
0.209849
2.55673
2.71328
3.01962
4.48218
4.76463
4.49473
4.24321
4.0024
3.87479
3.73694
3.88266
3.7908
3.49464
6.63196
6.3017
5.95032
6.31881
7.18759
7.10458
8.40786
0.221867
3.53965
3.40976
3.76494
4.5992
4.69969
4.46984
4.19143
3.97863
3.74604
3.73129
3.89359
3.77585
3.48856
6.69995
6.27451
5.96181
6.79622
7.4917
6.74276
5.03275
5.31426
3.06323
2.02746
0.709196
0.500078
3.25363
4.82637
4.11589
4.59542
4.68591
4.56337
4.42872
4.22921
4.13827
3.80952
3.9241
3.85468
3.5369
6.70811
6.28438
6.0478
7.30532
7.5762
5.02211
6.22572
0.177339
0.122661
0.115456
0.138008
0.446685
1.09231
1.4055
1.77177
1.75816
2.21416
2.66561
3.57115
4.15195
4.44764
4.11312
4.02215
3.94326
3.6213
6.66072
6.33921
6.18131
8.16321
7.87779
5.26203
2.06149
1.3191
0.632004
0.13238
0.118473
0.13453
0.129083
0.135341
0.138117
0.132361
0.28295
1.25214
0.989536
1.8167
3.37352
3.59554
3.64945
3.31172
3.22866
6.60545
6.4041
6.23495
8.65537
8.22397
6.5879
5.48776
3.92091
2.66662
3.17422
0.139577
0.299201
2.49597
1.71169
1.05436
0.547389
0.935504
1.36609
1.49826
1.7084
3.02645
3.07538
3.53801
3.57124
3.37217
6.5922
6.4535
6.24545
8.85475
8.44028
6.90232
6.23093
5.66541
4.94636
4.33768
1.90576
3.04025
3.0947
2.78423
2.74916
3.55673
3.8674
3.62033
1.92163
1.65547
1.77403
1.38505
2.67698
4.29515
4.89524
6.59364
6.49003
6.25071
9.1775
8.69263
7.25105
6.48552
5.86153
5.5695
5.06929
4.69632
3.64526
1.88303
2.35143
3.32965
3.70785
4.34063
4.12502
3.42313
3.17416
3.26837
3.5097
5.37843
9.30312
10.7435
6.59378
6.43576
6.13986
8.2164
9.69027
8.37058
7.33537
6.70165
6.65223
7.14296
7.06676
3.36319
2.35899
4.53342
6.87647
4.84548
5.9506
9.35494
8.33205
8.39283
10.1556
11.0625
11.9885
15.4362
16.0284
6.65658
6.33787
6.2762
5.52816
8.88111
9.24064
8.78164
7.86568
7.65798
7.95948
7.97103
6.83625
2.65139
4.96957
8.56386
9.68134
12.9252
14.679
11.3836
11.636
13.3698
16.6347
17.5072
17.4521
17.5894
6.70173
6.31131
6.12348
6.02972
6.88189
8.36389
8.58251
3.35146
3.84365
5.58829
5.84221
6.65191
6.8907
8.00916
10.5743
13.3641
15.5369
18.5976
9.02291
12.4401
14.6513
16.9134
16.9745
16.8288
17.204
6.64752
6.39453
6.03172
5.92992
6.24976
6.88185
8.58513
1.18229
4.60066
6.97442
7.09514
7.79802
7.327
8.60281
10.1522
10.4636
12.2369
15.0252
8.30036
12.0982
15.7301
15.9311
16.1197
15.7461
15.5396
6.62573
6.40847
6.01292
6.01327
6.18265
6.57608
7.92479
10.2327
10.7188
10.2945
9.9745
9.94068
9.69474
9.1131
8.77641
7.83325
8.22088
9.28507
9.93674
10.9546
11.2885
12.9177
13.8629
14.2078
14.2915
6.73795
6.68407
6.65242
6.89747
6.93194
10.5408
13.2921
14.9133
15.6131
16.3572
17.3099
17.9788
18.462
18.9425
19.3864
19.7584
19.9281
19.9228
19.7959
19.5769
19.3582
19.0644
18.7694
18.3767
17.9436
6.76116
6.66705
6.65042
6.96828
9.70493
8.81556
10.1482
12.8903
14.1976
15.4531
16.433
17.0018
18.0546
19.4135
20.5517
20.9235
21.1533
21.073
20.4275
20.1826
19.9236
19.6797
19.3686
18.1865
18.2113
6.74868
6.68148
6.67897
7.99018
8.46773
4.98284
5.23237
6.90334
7.22054
7.39694
7.56738
7.75979
8.87524
10.1878
10.779
10.3014
10.5403
9.93843
9.75702
9.61141
9.58052
9.535
8.58049
8.90572
10.6801
6.71298
6.71285
6.68312
7.52436
7.92435
5.58597
5.85647
6.81392
7.00443
7.00886
7.10312
5.383
4.71752
6.20515
6.36546
6.27731
6.45627
6.50195
6.45605
6.34404
6.23279
6.24662
6.09133
5.5656
5.6183
6.73485
6.69429
6.6566
7.48038
7.84195
4.49964
5.53066
6.26002
5.28035
5.54149
6.91613
6.10797
4.45353
5.68378
6.21518
5.95606
6.21518
6.4954
6.54067
6.39538
6.31965
6.25822
6.33141
5.81163
5.19135
6.7598
6.68266
6.67442
7.52273
6.93225
3.01176
3.99318
6.21603
1.378
2.48583
3.40728
5.17285
5.29313
5.65833
5.83801
5.93655
6.30165
6.58628
6.58953
6.41172
6.22756
6.23169
6.30934
5.65761
5.24543
6.72641
6.6951
6.66645
7.50092
5.05974
2.70021
4.48475
1.69787
0.902327
3.78539
3.47734
5.51654
6.61327
6.6307
6.55829
6.44822
6.33345
6.23282
6.31331
5.75203
5.09156
6.68979
6.71271
6.68342
7.58962
7.61409
5.91287
8.00516
0.188308
2.42025
2.43338
2.65323
5.54232
6.58486
6.5506
6.45321
6.37714
6.2845
6.22657
6.30054
5.6453
5.10051
6.77628
6.66026
6.67402
7.82976
8.05181
8.1368
10.4824
0.298939
3.26481
2.50146
3.14698
6.07112
6.60063
6.55014
6.44694
6.37128
6.26146
6.23135
6.31521
5.66114
5.14043
6.75169
6.68756
6.72478
8.20038
8.09929
7.40583
6.55248
5.55194
3.1796
2.15839
0.890229
0.543085
3.67897
4.50286
4.57915
6.1268
6.50135
6.51552
6.47752
6.45204
6.377
6.26792
6.29384
5.73029
5.17323
6.73764
6.71343
6.79386
8.83123
8.30986
7.16644
5.02495
3.14452
3.70436
4.25227
3.80506
3.57885
4.10951
4.00848
3.5624
3.50915
3.80227
4.2526
5.24299
6.23554
6.4306
6.34327
6.34555
5.77246
5.31829
6.71918
6.76271
6.90413
9.8242
8.48024
6.9873
5.25594
3.35747
3.59006
3.95745
2.85468
2.39722
3.1463
3.21617
3.00612
2.95298
2.96768
2.80406
2.68844
4.41915
5.80312
5.94874
6.01913
5.58316
5.20599
6.72679
6.81527
7.00098
10.1276
8.76158
6.908
6.83471
6.31349
5.6066
4.86683
2.58356
3.15513
4.18776
3.9102
3.7848
3.54646
3.68641
3.53878
3.28249
4.47621
5.49728
5.60726
5.91709
5.7376
5.51655
6.73818
6.82587
6.97382
10.3382
8.89943
7.1619
7.05274
7.06176
7.03944
6.48963
4.72887
5.18401
5.12795
5.02751
5.32928
5.91401
6.04067
5.87927
5.70472
4.77804
4.79909
4.80068
5.61337
6.273
7.16979
6.72065
6.84782
6.95581
10.8476
9.27773
7.65664
7.43831
7.26751
7.18275
6.9876
7.12595
6.66241
3.97546
4.98958
6.06341
6.29258
6.58598
6.67323
6.6201
6.75642
6.47999
6.46692
7.93849
12.4693
13.9349
6.74723
6.83842
6.85109
9.62062
10.6129
9.24733
8.81857
8.64154
9.07011
9.64444
10.0445
9.84314
7.91399
9.10353
10.8821
12.7318
13.5294
14.5276
14.6443
14.8835
15.2532
15.8424
18.7238
19.3229
19.7404
6.74356
6.73439
6.91354
6.66277
10.506
10.6715
10.1897
9.91255
10.0056
10.5498
10.9163
10.9428
10.5851
9.89056
11.8725
15.8098
18.855
19.2943
18.1718
19.063
19.7882
19.9347
20.4952
20.6821
20.7693
6.74301
6.69561
6.74026
6.69943
8.00686
9.9834
10.8524
10.0491
9.15454
9.24663
9.33102
10.1147
10.1496
10.8719
12.4853
15.3449
18.2226
21.2076
19.5386
19.3477
20.0328
20.7965
20.0124
20.1226
19.9942
6.74004
6.64362
6.73054
6.7706
6.89919
8.35085
12.6954
12.0733
11.7507
11.4512
11.3433
11.2146
11.3468
11.9671
11.9983
12.2588
13.7956
17.224
17.0433
16.4595
17.9017
18.5267
18.5844
18.4191
18.2136
6.71487
6.70234
6.6393
6.82102
7.19648
7.50985
10.6518
12.6696
13.3021
13.5892
13.1684
12.9534
12.436
11.5353
10.4692
10.1477
9.99514
10.253
10.5078
10.9372
11.7729
14.2606
15.5988
16.4391
16.5137
6.73521
6.68126
6.83047
7.08244
6.97912
10.4758
13.5507
16.0855
17.5165
18.3037
19.1026
19.8031
20.064
20.2222
20.4294
20.6075
20.7303
20.7318
20.6857
20.5647
20.3168
20.0604
19.7793
19.3614
18.9899
6.83176
6.6815
6.75519
7.09818
9.55116
9.99427
11.8885
14.8076
16.4392
17.5095
18.2582
18.6642
19.4838
20.4621
21.2247
21.4515
21.718
21.5913
21.2606
20.9878
20.7123
20.4712
20.0852
18.9796
19.1376
6.79956
6.71266
6.80409
8.33775
8.66068
7.50239
7.58398
8.03956
7.90675
7.93442
7.91954
8.15582
9.02273
10.0589
10.5567
10.1101
10.4833
10.0327
9.87922
9.72115
9.73083
9.61572
8.91237
9.21828
11.3075
6.77229
6.73351
6.80704
7.99382
8.02393
7.22601
7.22865
7.2502
7.21135
7.21429
7.16359
7.25752
6.92862
7.02519
6.8773
6.74312
6.73897
6.70323
6.67914
6.67299
6.66332
6.7001
6.57394
6.02795
6.09992
6.79567
6.72422
6.795
7.884
8.07768
7.05502
6.90221
7.67357
5.71041
6.20557
7.05903
7.38255
6.94103
6.99646
6.94012
6.84546
6.83823
6.86144
6.88552
6.87638
6.87127
6.87538
6.89176
6.69547
6.46423
6.75575
6.73593
6.79999
7.71015
8.43393
5.90414
6.70192
8.30651
1.73267
2.30012
3.5784
5.19257
5.88906
5.8083
6.25632
6.74376
6.83641
6.85917
6.87892
6.88055
6.8769
6.87386
6.86731
6.74327
6.48782
6.71948
6.74054
6.81558
7.67285
8.25387
6.43001
9.8466
3.08783
1.54355
3.44303
3.19624
5.51917
6.79267
6.86682
6.87794
6.87008
6.87658
6.87427
6.86559
6.68956
6.4372
6.73296
6.73388
6.80064
7.90166
8.13031
8.1496
10.9217
0.19792
1.78405
2.02867
2.45005
5.43844
6.78762
6.86253
6.88121
6.87891
6.87352
6.8676
6.86744
6.7591
6.42207
6.80477
6.7079
6.80655
8.18219
8.21267
8.22954
12.0976
0.374061
2.39012
2.28848
2.84142
6.01403
6.8192
6.86435
6.88214
6.87748
6.87434
6.86834
6.86907
6.76893
6.43366
6.74407
6.75333
6.86949
8.5722
8.21483
7.43119
7.85667
5.08074
2.74064
1.8634
0.782059
0.570698
3.55476
3.72353
4.29967
6.4517
6.82152
6.8533
6.86584
6.88478
6.88207
6.87797
6.86858
6.77271
6.45495
6.70719
6.78318
6.93932
9.24398
8.39813
7.19143
7.28021
5.98544
6.00782
6.08937
5.76379
5.9073
5.96964
5.9405
5.90526
5.98523
6.09996
6.2669
6.57512
6.82423
6.88701
6.88264
6.87465
6.76003
6.52084
6.69485
6.84248
7.09654
10.1682
8.64094
6.9915
7.04609
6.03289
6.40116
6.50993
6.0516
5.66695
6.01374
5.86577
5.44246
5.2603
5.20131
5.23663
5.63237
6.50742
6.80248
6.80885
6.83686
6.80217
6.5676
6.73075
6.88658
7.14053
10.5277
8.87249
6.92061
6.93812
7.1434
7.17892
6.88799
5.83248
5.87857
6.27948
6.35531
6.27365
6.14756
6.12838
5.96261
6.12695
6.59238
6.75712
6.76274
6.82785
6.71762
6.66311
6.74688
6.88687
7.13546
10.8862
9.17472
7.1909
7.06891
7.14543
7.20848
7.0878
7.04302
6.96875
6.75575
6.6603
6.7778
6.83966
6.84298
6.81332
6.884
6.78693
6.70809
6.71221
6.71824
6.73793
8.2225
6.72929
6.9067
7.09742
11.3989
9.5223
7.70816
7.49305
7.3743
7.31856
7.28482
7.45751
7.96524
6.79791
7.0135
6.92135
6.92143
7.00964
7.05862
7.21193
7.44045
6.98732
7.06635
8.73364
14.087
15.787
6.76534
6.91189
6.95382
10.2009
10.8578
9.37965
8.95861
8.9819
9.60286
10.64
11.35
12.4985
12.2938
12.8073
14.2067
15.5655
16.1746
16.8347
17.6359
18.0519
18.3383
18.5114
20.5702
21.2497
21.7087
6.75542
6.81047
7.07214
7.395
10.304
10.5573
10.3814
10.4555
10.8648
12.387
12.9574
13.7534
13.6334
13.4977
14.4629
17.0437
19.0642
20.8958
21.0568
20.9215
20.9824
21.3843
21.8149
22.1179
22.2496
6.72757
6.75498
6.86313
6.84289
8.06941
10.0297
11.8375
11.9255
11.472
11.4363
11.8626
12.3038
12.5263
12.7557
13.3895
14.7705
17.1065
19.4899
19.9218
19.9426
20.1852
20.8351
20.8717
20.5489
20.4671
6.8314
6.63385
6.84625
6.96887
7.25355
9.09371
11.8075
13.8845
14.138
13.6853
13.2887
13.2821
13.0465
13.0379
12.9064
13.1028
13.6547
14.9786
15.431
15.5674
16.3997
17.5166
18.112
18.2685
18.1135
6.7559
6.70937
6.75755
6.99204
7.49312
7.7053
11.1283
13.445
14.9766
15.5777
15.4514
14.9614
13.8728
12.619
11.1626
10.2408
10.2897
10.3476
10.3235
10.3086
10.7074
12.5512
14.6111
15.8099
16.1642
6.67448
6.71932
6.87796
7.13749
7.05423
10.3671
13.8351
16.8438
18.6672
19.6072
20.3935
21.1581
21.0959
21.1443
21.2226
21.306
21.3436
21.3217
21.2214
21.0648
20.8535
20.6079
20.3353
19.9427
19.5272
6.83127
6.69006
6.77333
7.11707
9.44072
10.1772
12.6906
15.7206
17.408
18.4338
19.3328
19.7582
20.3414
21.0991
21.4806
21.6707
21.95
21.7688
21.5522
21.3798
21.1714
20.8863
20.5455
19.3745
19.585
6.77141
6.73475
6.83014
8.34846
8.60747
7.54732
7.72998
8.02345
7.87431
7.99384
8.35456
8.63867
9.30655
10.0957
10.3199
10.0886
10.3813
10.0481
9.81286
9.91646
9.85397
9.92909
9.15803
9.42224
11.6198
6.79325
6.72604
6.82278
8.04621
8.06917
6.98952
7.0315
7.09215
7.19677
7.16226
7.04779
6.96992
6.97989
6.95013
6.85127
6.77607
6.75822
6.7077
6.70271
6.69521
6.70348
6.73967
6.62714
6.15966
6.2924
6.78673
6.7292
6.81431
7.98806
8.10363
7.06833
7.15833
7.72739
6.10875
6.57612
6.99422
7.01148
7.05929
7.01425
6.94361
6.89963
6.88469
6.88245
6.88981
6.89533
6.90136
6.90329
6.91856
6.91643
6.86858
6.71582
6.73719
6.83652
7.68118
7.93805
7.41882
8.29875
6.06143
1.70496
2.17916
3.58106
4.45248
5.30036
5.66763
6.37027
6.80728
6.87136
6.87349
6.88484
6.89952
6.89907
6.90421
6.89701
6.90126
6.93593
6.70323
6.7183
6.84132
7.60716
7.94574
7.69907
10.8349
4.1266
0.79807
1.51816
2.68802
5.71879
6.81156
6.87591
6.88282
6.90231
6.89725
6.90042
6.89427
6.88584
6.88695
6.72572
6.7246
6.8584
7.93209
8.12493
8.07082
12.377
0.318904
0.939534
1.80482
2.72903
5.69027
6.80359
6.87012
6.89207
6.90002
6.90149
6.89876
6.89682
6.88216
6.8729
6.76031
6.7476
6.83832
8.26828
8.25269
7.91291
12.0949
0.337703
1.25867
2.15626
3.26167
6.13843
6.82981
6.87323
6.89788
6.90059
6.89932
6.90075
6.89948
6.88476
6.87915
6.74104
6.76306
6.89072
8.68202
8.22017
7.36982
7.96803
4.53947
2.5146
1.78607
0.833783
0.84755
2.40972
2.88429
4.41064
6.55708
6.85098
6.8783
6.89003
6.90308
6.9017
6.90341
6.89999
6.89329
6.89703
6.69718
6.79402
6.95773
9.31908
8.41305
7.02805
7.19983
7.35222
6.56473
6.53541
6.21036
6.41567
6.19336
6.33403
6.69814
6.81575
6.82659
6.8354
6.85888
6.89826
6.90641
6.90563
6.91426
6.92524
6.94996
6.67381
6.87656
7.13608
10.0788
8.61975
6.8614
7.00448
7.21599
7.25438
7.16751
7.02421
6.9911
7.04064
6.94237
6.81256
6.76016
6.74604
6.72503
6.76899
6.88246
6.90212
6.90526
6.91733
7.03306
7.06799
6.7352
6.89952
7.16828
10.6289
8.91723
6.9399
6.9078
7.08392
7.19586
7.1291
7.07327
7.03483
7.00136
6.91651
6.87947
6.86433
6.85013
6.82631
6.83645
6.90628
6.90439
6.90817
6.95286
6.9737
7.02739
6.73932
6.89033
7.17707
11.1322
9.27798
7.23221
7.08529
7.15105
7.17542
7.1304
7.15588
7.12332
7.00098
6.91365
6.9144
6.91699
6.9173
6.91513
6.92311
6.93025
6.9081
6.90989
6.9034
6.95306
8.64155
6.72855
6.92012
7.12655
11.5842
9.56265
7.73422
7.51739
7.39131
7.31655
7.28135
7.27238
7.42276
7.39414
7.18793
6.97571
6.94873
6.94015
7.01702
7.26326
7.43536
6.96769
7.07145
9.14136
15.0031
16.9088
6.76862
6.9295
6.9845
10.42
10.9399
9.38577
8.98891
8.97261
9.57965
10.8559
11.7851
12.9343
13.9273
15.2048
16.103
16.7071
17.2474
18.1022
18.8688
19.4629
19.8103
19.9232
21.4492
22.3658
22.6033
6.75786
6.82939
7.11167
7.74228
10.196
10.5575
10.4962
10.5101
11.0336
12.7473
13.9579
15.1586
15.636
15.813
16.261
17.5336
18.7836
20.5512
21.0774
21.1978
21.4769
21.796
21.9532
22.3183
22.5902
6.72224
6.76506
6.89184
6.89115
8.01882
10.208
11.7155
12.0064
12.02
12.4401
12.7236
13.3598
13.8871
14.1183
14.3854
14.84
15.9697
17.2529
18.3155
18.8974
18.8539
19.4881
19.4423
19.1948
19.331
6.83915
6.63544
6.86475
6.95825
7.64659
9.19346
11.7479
13.8318
14.5664
14.3811
14.2142
13.9754
13.8339
13.7342
13.7014
13.3713
13.1953
13.4298
13.6674
13.7649
14.1768
14.4507
15.2426
15.6285
15.9285
6.69562
6.68792
6.78523
7.03725
7.60108
7.76891
11.4398
13.8524
15.8049
16.6703
16.4862
15.93
14.5214
13.2427
12.0232
10.5306
9.7632
10.5287
10.4335
10.143
9.88338
10.2631
11.7368
13.2847
13.9277
6.66398
6.72358
6.89118
7.14998
7.10755
10.2653
14.1178
17.462
19.343
20.5008
21.4113
22.169
21.9636
21.8798
21.8455
21.849
21.81
21.7765
21.64
21.45
21.2284
20.973
20.6925
20.3554
19.7451
6.79262
6.71279
6.78693
7.07924
9.38374
10.2371
13.3457
16.3717
18.0572
18.9726
19.9438
20.4222
20.944
21.5446
21.7984
22.0306
22.1138
21.9805
21.7727
21.5414
21.4159
21.0825
20.7697
19.6416
19.7682
6.69706
6.77912
6.85539
8.37965
8.63344
7.57514
7.79369
7.98962
7.9699
8.10943
8.56155
8.85396
9.69819
10.2535
10.2596
10.2453
10.3328
10.0534
9.9861
10.1053
10.0742
10.0277
9.31243
9.51583
11.8112
6.7963
6.72211
6.82632
8.07493
8.08062
6.97294
6.92177
6.98754
7.09264
7.09065
7.00121
6.91711
6.91679
6.90043
6.83026
6.77895
6.76031
6.72917
6.70812
6.70665
6.71128
6.73383
6.66224
6.28858
6.48013
6.79326
6.71855
6.81294
7.97609
8.14121
6.97913
7.01677
7.32565
7.03763
7.04615
7.04638
6.95801
6.98531
6.9711
6.92703
6.89753
6.88831
6.88871
6.90153
6.90172
6.90416
6.90543
6.94459
7.02911
7.06997
6.72455
6.70355
6.83533
7.66917
7.85183
7.24868
7.68293
6.79573
3.30371
3.75829
4.88437
5.30073
5.86605
6.29286
6.69814
6.85848
6.87609
6.87941
6.90243
6.9025
6.90654
6.90718
6.91218
6.98604
7.15735
6.7165
6.69489
6.8378
7.59794
7.85789
7.54088
7.99221
6.65862
2.60755
2.1408
1.66509
1.48933
2.08419
3.17239
4.66022
6.47199
6.84861
6.88296
6.89762
6.90232
6.90205
6.90474
6.90846
6.98202
7.09036
6.72298
6.72115
6.85975
7.89511
8.08742
7.77672
8.72967
5.30173
2.60596
2.05732
1.56962
1.33577
2.71341
4.0584
4.97918
6.47388
6.84122
6.87633
6.89783
6.90233
6.90379
6.89722
6.90711
6.89592
7.08886
6.74401
6.75633
6.84428
8.23344
8.23186
7.60567
9.42355
3.36554
2.38719
1.99169
1.41215
1.41473
3.11841
4.28846
5.30128
6.60935
6.85247
6.87944
6.90136
6.9004
6.9072
6.89879
6.91078
6.89575
7.0903
6.73768
6.76493
6.89446
8.72452
8.25094
7.1881
7.48973
5.04857
3.54483
3.76208
3.22399
3.43856
3.96469
4.51341
5.8837
6.76154
6.86423
6.87786
6.89824
6.89715
6.90819
6.89648
6.91189
6.91707
7.10418
6.69421
6.79725
6.95575
9.27804
8.39491
6.90117
7.03465
7.25107
6.98379
6.90119
6.71942
6.84704
6.69947
6.73368
6.85314
6.87855
6.87776
6.88495
6.8932
6.90374
6.90807
6.9077
6.9294
7.04429
7.13636
6.67902
6.88207
7.15056
10.0169
8.60717
6.82085
6.87918
7.03769
7.18857
7.12964
7.04715
7.04818
7.0453
6.98111
6.91442
6.88852
6.88951
6.88898
6.89275
6.90696
6.90688
6.9095
6.91851
7.11614
7.25969
6.73846
6.90201
7.18048
10.7486
8.9955
6.96721
6.90362
7.04727
7.11812
7.10012
7.05039
7.03459
6.99356
6.93738
6.9036
6.89877
6.89309
6.89554
6.90399
6.91141
6.91447
6.91019
6.97165
7.06852
7.20653
6.73851
6.89256
7.18184
11.1538
9.27292
7.25038
7.10566
7.16232
7.17427
7.131
7.09847
7.04871
6.96701
6.91811
6.91514
6.91493
6.91353
6.91575
6.91522
6.91758
6.91266
6.90774
6.89529
7.38393
8.95041
6.73133
6.93193
7.15917
11.6655
9.58229
7.74911
7.53903
7.40479
7.31073
7.26574
7.23666
7.22476
7.23472
7.15374
6.9635
6.94643
6.90328
7.02538
7.31133
7.43787
7.08132
7.01344
9.39033
15.587
17.6796
6.77016
6.93782
6.99769
10.6527
11.0297
9.42215
8.97674
8.91163
9.41089
10.7323
12.0046
12.9793
14.5655
16.2729
17.0926
17.287
17.9327
18.8194
19.6613
20.2634
20.6159
20.6344
22.0713
22.578
23.2838
6.75857
6.84871
7.11639
7.85219
10.3322
10.7779
10.5333
10.6363
11.4108
12.8723
14.5471
15.9074
16.8452
17.5528
17.9436
18.6735
19.2121
20.2796
20.7942
21.1811
21.5473
21.9062
21.8218
21.883
22.4097
6.72156
6.7694
6.90573
6.94581
7.98259
10.4363
11.8935
12.1994
12.6023
13.0538
13.3828
13.7537
14.6333
15.1175
15.4343
15.6788
15.7943
16.2428
16.8155
17.6873
17.8704
18.1501
17.7682
17.0163
17.722
6.83697
6.6393
6.86459
6.9194
7.59972
9.41273
11.9942
14.0498
14.8962
14.8934
14.2752
14.7776
13.8249
13.5105
13.7254
13.5202
12.8653
13.255
13.0455
12.5562
12.8515
12.7601
11.9641
12.1605
12.8523
6.69226
6.68169
6.78609
7.02196
7.59534
7.76554
11.7942
14.2583
16.2947
17.1554
16.8
16.2425
14.5168
13.3755
11.6198
11.8243
10.38
10.3319
10.8547
10.5121
9.81415
9.89819
10.0645
10.2676
11.1049
6.65595
6.72858
6.89361
7.12037
7.10749
10.3579
14.4396
17.9148
19.7925
20.9113
21.7533
22.5519
22.3661
22.2589
22.1878
22.1453
22.078
22.0198
21.8708
21.66
21.4255
21.1548
20.8719
20.5106
19.6274
6.73767
6.749
6.80709
7.03547
9.33994
10.3371
13.9453
17.0214
18.5554
19.3422
20.2273
20.7355
21.3068
21.8572
22.1134
22.2143
22.1616
22.0737
21.8592
21.6063
21.3988
21.1127
20.8024
19.6542
19.8251
6.73903
6.75228
6.85386
8.4507
8.66062
7.67723
7.98289
8.17082
8.06754
8.19433
8.55866
8.92459
10.1103
10.3151
9.95604
10.129
10.239
10.0673
10.0312
10.0449
9.98142
9.88303
9.17183
9.34387
12.0831
6.78599
6.72627
6.83583
8.20377
8.15901
7.05297
6.96934
7.01527
7.07683
7.06827
6.99097
6.9375
6.94282
6.90932
6.86259
6.81761
6.79648
6.75757
6.74781
6.73876
6.75014
6.77305
6.7258
6.51959
6.78926
6.77334
6.73108
6.82087
7.99598
8.12407
7.01069
6.95953
7.06192
7.32726
7.24194
7.10456
7.00897
7.0062
6.99269
6.96217
6.93873
6.9272
6.92584
6.92872
6.92675
6.93329
6.93283
7.02668
7.16351
7.30199
6.72238
6.70718
6.831
7.75049
7.8965
7.1042
7.24676
8.17163
5.999
6.19308
6.70123
6.77503
6.86892
6.92606
6.93805
6.92911
6.9189
6.91918
6.92709
6.93127
6.93303
6.93674
7.00923
7.25912
7.29504
6.70889
6.70199
6.84086
7.69185
7.91616
7.36012
7.51538
8.1032
4.94223
4.7425
5.60927
5.72391
6.02249
6.23338
6.60337
6.86827
6.90994
6.91938
6.92396
6.92786
6.93086
6.92852
7.01381
7.18019
7.23437
6.74655
6.73543
6.84979
7.9145
8.11468
7.51795
8.1169
8.896
5.06001
4.70305
5.4728
5.6293
6.4099
6.57425
6.68207
6.86513
6.9034
6.91675
6.93015
6.93269
6.92987
6.93329
7.01471
7.16664
7.21699
6.73265
6.75991
6.85613
8.2649
8.25069
7.35562
7.7764
6.45921
4.54248
4.78522
5.45063
5.7321
6.50874
6.62291
6.74044
6.87952
6.90702
6.91924
6.92532
6.92822
6.93306
6.93625
7.01639
7.1661
7.2159
6.7289
6.76784
6.90731
8.81176
8.36912
7.09002
7.1885
7.68127
6.07809
6.29977
6.18892
6.4219
6.55319
6.61661
6.82356
6.90559
6.91243
6.92109
6.93101
6.93442
6.92896
6.93505
7.01799
7.16826
7.224
6.69243
6.80106
6.97338
9.25522
8.44538
6.85847
6.97262
7.13303
7.23701
7.13057
7.0131