/*--------------------------------*- C++ -*----------------------------------*\
  =========                 |
  \\      /  F ield         | OpenFOAM: The Open Source CFD Toolbox
   \\    /   O peration     | Website:  https://openfoam.org
    \\  /    A nd           | Version:  6
     \\/     M anipulation  |
\*---------------------------------------------------------------------------*/
FoamFile
{
    version     2.0;
    format      ascii;
    class       volScalarField;
    location    "15";
    object      p;
}
// * * * * * * * * * * * * * * * * * * * * * * * * * * * * * * * * * * * * * //

dimensions      [0 2 -2 0 0 0 0];

internalField   nonuniform List<scalar> 
230684
(
682.861
682.046
680.337
676.874
666.506
644.279
597.758
541.687
508.045
472.525
439.915
407.494
374.827
342.551
309.865
275.436
239.422
202.903
166.96
132.309
99.2137
68.1593
41.0742
19.8645
6.67442
684.272
684.208
683.685
684.234
675.343
637.864
578.9
554.028
517.821
484.447
453.514
419.751
385.442
351.924
318.295
283.103
246.584
209.751
173.297
137.762
103.4
70.431
39.3131
13.3075
5.00304
686.002
686.266
687.612
693.835
703.097
585.573
568.282
556.776
532.447
504.838
472.367
430.653
394.312
354.377
318.648
286.493
249.482
212.187
174.19
135.827
98.913
63.2406
25.1348
10.3564
3.9265
687.739
687.838
690.276
687.617
693.95
572.972
584.926
565.206
538.45
506.647
495.941
385.225
398.283
346.537
305.073
290.873
248.249
208.868
168.799
129.402
91.4766
56.0465
20.3575
7.53723
2.52362
689.709
690.874
693.911
698.818
677.996
607.262
601.609
557.274
534.939
509.204
504.235
350.927
404.862
304.453
322.924
288.843
249.945
207.044
165.525
125.553
87.5349
52.1392
18.1512
6.49573
2.23574
691.042
692.671
697.556
711.129
717.338
610.296
628.852
549.592
518.204
495.589
473.936
411.43
369.723
359.16
295.402
289.59
241.216
203.301
163.135
122.361
84.6959
49.8642
17.2703
6.04399
2.06464
690.68
692.042
697.792
714.64
719.378
646.642
646.009
646.085
550.524
481.66
460.516
396.689
364.809
340.944
319.02
281.553
240.688
201.076
159.563
119.751
82.8795
48.493
16.7856
5.72055
1.91212
689.019
689.742
693.39
701.837
692.342
685.761
690.137
613.521
586.868
461.904
432.648
405.639
361.928
347.206
320.83
283.188
240.147
199.119
158.132
118.605
82.2935
48.0593
16.4792
5.6209
1.90461
687.064
687.491
689.931
695.782
690.614
677.435
683.157
471.019
597.128
473.791
446.071
407.28
360.6
345.199
320.187
280.974
237.926
196.421
155.766
117.739
81.7188
47.4748
16.0933
5.52335
1.93481
685.127
685.443
687.436
692.999
686.451
671.123
664.247
575.164
516.333
499.053
467.327
424.618
364.468
343.323
314.851
276.047
234.207
193.093
153.14
115.779
79.8107
46.0191
15.322
5.02065
1.70032
683.262
683.456
685.206
691.633
696.215
664.478
691.04
532.279
542.704
507.891
474.272
418.084
375.328
340.662
309.845
268.661
230.063
192.096
155.006
114.543
77.2834
43.0219
13.7669
4.5777
1.54091
681.642
681.648
682.675
687.202
675.859
674.179
604.656
637.414
544.71
532.201
509.612
430.432
378.074
360.371
323.322
273.693
213.149
192.92
161.071
121.355
64.7817
41.3641
12.9922
3.95552
1.42085
680.546
680.409
680.883
684.018
668.931
645.899
627.674
604.493
561.461
514.152
483.852
413.443
402.824
380.66
309.529
312.041
233.303
202.409
136.311
111.206
61.9648
38.6441
14.0763
6.29344
0.844793
680.116
679.87
680.09
683.299
667.303
644.744
620.175
587.612
559.437
517.985
484.684
442.161
393.695
361.387
314.725
241.177
234.037
197.945
175.49
110.412
44.1731
42.8672
15.8157
10.5231
1.49561
680.075
680.143
680.666
684.222
671.696
648.77
621.58
587.05
551.153
518.554
497.303
503.643
404.904
311.06
290.723
270.083
223.562
199.631
158.974
111.323
67.875
43.3623
24.1798
11.3816
1.92616
679.032
679.271
681.144
684.172
685.371
662.281
624.996
582.104
543.412
514.908
504.86
510.71
434.263
308.757
320.88
241.206
246.096
196.807
178.999
122.178
62.0954
39.3485
19.8029
12.2346
4.09706
676.058
675.496
675.112
674.918
670.742
659.596
636.479
582.05
532.738
516.844
497.221
487.456
357.336
332.998
295.78
245.531
250.288
207.467
160.851
103.455
68.8215
51.9166
29.0257
15.6177
5.20117
672.527
671.309
669.588
666.947
661.331
658.536
648.466
578.242
546.081
512.637
486.963
451.139
375.835
328.533
318.318
248.04
219.049
247.696
118.037
69.6055
66.1701
52.3525
35.9845
18.644
5.55866
669.807
668.234
665.408
660.843
652.891
641.788
635.458
547.81
558.696
521.467
500.62
494.341
344.688
340.542
303.998
278.53
259.72
259.226
79.4133
66.2856
68.5663
49.583
35.694
20.123
5.72053
668.385
666.627
663.188
657.332
647.758
633.248
612.465
581.336
550.408
517.876
480.989
438.064
374.745
327.913
298.374
270.022
250.114
213.846
109.323
85.7117
66.3398
52.0437
35.9151
19.9099
4.47011
682.576
681.941
680.066
675.851
666.469
646.457
597.361
543.431
508.47
472.428
439.308
406.743
374.223
341.963
308.978
274.3
238.168
201.722
165.996
131.53
98.6237
67.6828
40.7099
19.8767
6.39377
683.896
683.999
683.527
683.318
676.223
641.302
539.634
553.304
517.981
485.052
453.161
419.034
384.875
351.149
317.069
281.579
245.051
208.388
172.248
136.887
102.716
69.8485
38.6237
13.6626
5.7264
685.48
685.78
686.884
693.192
713.158
552.116
533.171
502.929
470.704
431.386
392.664
353.066
318.45
285.928
249.733
212.161
173.486
134.828
97.8854
62.0219
24.0563
10.1818
4.37691
687.112
687.257
690.009
691.385
695.785
563.931
534.721
504.734
489.701
339.205
314.474
286.56
248.764
208.749
168.543
128.934
91.0767
55.6034
19.6748
7.82595
2.8845
688.959
690.079
692.559
698.032
674.08
612.089
595.589
562.435
532.889
505.439
488.137
312.769
284.53
247.47
206.85
165.894
125.756
87.3238
51.9186
17.8316
6.84122
2.52808
690.211
691.832
696.259
709.456
726.135
516.139
497.261
469.649
416.601
371.033
355.568
284.382
245.077
203.845
162.357
122.259
84.478
49.5933
16.8942
6.40803
2.33758
689.935
691.375
696.664
712.953
739.311
609.981
366.744
346.746
318.617
281.485
242.063
201.097
159.105
119.472
82.429
47.9928
16.2445
6.11064
2.20239
688.455
689.293
692.832
701.499
688.817
682.7
690.417
710.473
358.866
348.299
320.963
281.974
240.374
198.9
157.609
118.456
81.8948
47.5258
15.9726
6.04631
2.191
686.631
687.138
689.554
696.11
688.68
679.044
680.491
360.54
347.493
319.721
279.569
237.646
195.908
155.427
117.417
81.3386
47.0791
15.7741
5.98365
2.19373
684.766
685.12
687.043
693.414
684.529
671.435
660.244
557.19
517.429
502.714
471.509
419.967
363.228
346.1
314.392
275.119
233.713
192.324
153.147
115.674
79.4453
45.6852
15.0964
5.58659
2.01294
682.973
683.132
684.689
691.584
691.688
664.792
692.37
422.741
378.193
343.706
310.434
269.117
228.756
191.156
154.041
114.7
77.086
43.0367
13.7605
5.01308
1.8532
681.429
681.348
682.067
687.394
674.062
664.241
617.869
619.395
522.874
206.532
194.374
153.923
120.161
68.4348
40.9083
12.6218
4.35427
1.8453
680.367
680.16
680.237
684.453
667.958
646.075
624.774
621.841
404.884
402.205
381.887
321.473
289.096
215.108
198.654
101.313
67.3996
38.392
12.6832
5.92282
1.5407
679.964
679.716
679.462
683.835
666.714
644.163
618.962
587.783
556.066
517.951
480.969
434.025
391.665
358.709
316.663
246.588
230.87
196.789
180.187
100.683
20.185
8.86943
2.25347
679.926
680.25
680.369
684.74
670.911
648.036
620.141
586.029
550.334
516.858
491.679
497.729
338.088
298.47
267.558
226.422
195.548
159.097
113.443
71.4898
41.0159
25.2164
10.1314
2.8032
678.846
679.611
681.803
686.823
684.249
659.38
622.951
581.078
541.952
511.098
493.501
495.233
337.434
316.88
195.483
178.095
18.0601
12.459
4.7641
675.9
675.751
675.743
675.742
671.12
657.077
633.031
582.66
531.844
512.756
485.477
483.712
343.082
199.148
210.691
152.403
102.108
73.6974
53.2636
30.3133
15.9443
5.70209
672.391
671.401
669.772
667.107
661.092
656.843
646.486
580.746
546.799
509.14
481.844
444.74
376.118
330.99
318.333
213.13
256.397
73.5352
68.3841
52.7143
37.5865
20.6426
7.01398
669.683
668.305
665.556
660.829
652.73
641.249
634.193
487.691
561.363
518.918
497.853
502.747
338.58
298.444
280.955
258.522
272.333
64.2244
69.8804
51.1869
36.9386
21.4022
6.79129
668.26
666.65
663.294
657.279
647.525
633.339
612.953
581.557
549.911
515.833
477.609
435.034
375.357
328.325
298.111
268.375
248.419
214.188
113.566
86.6596
67.7134
53.1508
36.5096
20.5795
5.22802
682.264
681.608
679.275
674.663
665.483
645.789
602.735
548.428
510.92
473.462
439.109
406.113
373.435
340.682
307.004
272.016
236.003
200.028
164.883
130.88
98.312
67.5966
40.6768
20.0827
6.42505
683.459
683.563
682.782
681.266
669.864
642.706
593.942
553.213
519.647
485.35
451.349
416.937
382.781
348.792
314.467
279.394
243.24
207.094
171.525
136.525
102.577
69.6807
38.2837
13.2484
5.77999
684.82
685.001
685.539
689.369
674.421
619.536
596.006
556.423
529.334
499.111
466.944
428.603
391.342
353.374
318.543
285.41
249.552
211.591
172.951
134.278
96.9792
60.9069
22.4883
9.50057
4.18465
686.31
686.76
687.656
691.02
674.206
611.37
595.299
563.461
533.596
502.911
474.806
412.026
388.072
346.808
315.205
284.675
248.511
208.568
168.287
128.523
90.76
54.9672
18.4883
7.42919
2.64998
687.937
688.695
690.248
694.65
669.281
622.561
601.686
565.761
531.351
503.002
475.218
412.011
385.291
349.428
311.943
281.576
246.431
206.312
165.184
125.025
86.9998
51.5802
17.022
6.5456
2.30902
689.097
690.326
693.672
703.629
700.537
485.395
491.151
466.05
418.969
379.744
349.876
312.74
281.615
245.453
203.592
161.532
121.663
84.0692
49.1269
16.0752
6.14132
2.12904
688.94
690.094
694.248
706.355
706.332
619.432
357.65
349.292
318.396
282.766
242.956
200.813
158.547
119.134
82.0314
47.4503
15.409
5.90027
2.0321
687.678
688.402
691.427
699.231
687.028
680.485
684.76
698
363.78
351.945
320.783
281.968
240.192
198.229
157.028
117.983
81.3006
47.0429
15.2142
5.84382
2.02219
686.019
686.452
688.601
694.986
686.375
678.166
675.821
377.11
365.551
350.432
318.973
279.131
237.038
195.377
155.131
117.038
80.8828
46.8009
15.1489
5.78541
2.01172
684.263
684.507
686.137
691.941
681.583
668.439
648.648
553.468
521.562
506.58
473.835
406.666
369.333
348.342
314.301
275.281
233.529
192.319
153.269
115.498
79.2053
45.6896
14.6602
5.48792
1.8889
682.567
682.604
683.756
689.143
677.761
660.794
652.951
567.241
542.685
510.322
470.117
421.499
382.187
345.13
309.539
270.474
229.019
190.827
153.375
115.152
77.7651
43.9925
13.6766
5.03398
1.76841
681.136
680.973
681.269
685.297
670.721
651.315
622.568
592.935
548.631
527.294
470.889
431.159
398.007
357.724
314.97
274.438
209.746
190.789
155.637
114.777
74.4013
41.5451
12.577
4.65332
1.77108
680.174
679.9
679.652
682.846
666.269
644.849
620.237
588.591
556.458
541.027
471.794
406.615
398.62
364.335
317.193
279.61
226.508
194.152
150.137
113.159
72.0321
39.1079
12.5078
5.03456
1.84002
679.87
679.55
678.865
682.212
665.616
643.532
618.089
587.027
554.165
517.925
479.251
433.776
392.039
353.836
312.348
269.397
230.109
195.365
154.139
112.49
73.0431
39.861
14.4632
5.8096
2.08501
679.96
680.432
680.352
684.215
670.405
647.458
619.232
585.244
549.261
514.344
482.69
435.847
375.854
342.067
305.12
267.656
228.155
193.794
157.121
115.392
76.4891
42.7772
16.3615
7.53382
2.78099
678.975
680.041
682.745
690.924
683.583
657.169
621.249
580.04
539.862
505.42
474.334
417.059
366.237
338.78
306.764
261.406
222.86
190.933
151.563
108.332
76.8693
47.4918
23.4217
11.9733
4.79631
675.996
676.049
676.295
676.836
671.364
654.466
629.669
582.609
530.913
498.115
472.677
415.41
355.538
345.095
314.777
262.889
219.153
197.291
138.246
102.481
76.9389
50.6403
33.1155
17.522
6.2306
672.451
671.576
669.973
667.299
661.017
654.764
637.652
582.294
545.785
505.397
474.356
425.706
372.32
340.756
308.196
266.038
234.814
201.92
127.057
91.9178
75.5243
53.7055
38.4875
21.9409
7.69719
669.737
668.452
665.663
660.78
652.612
640.514
629.326
530.697
554.956
514.476
487.383
426.861
368.516
336.96
296.221
267.862
252.27
196.777
114.743
90.2708
70.9073
54.4457
38.5953
22.6013
7.51598
668.309
666.785
663.308
657.077
647.333
633.42
613.038
582.124
549.228
513.525
472.549
420.973
370.083
330.301
296.988
265.297
241.065
187.822
125.214
94.1316
70.8275
55.3197
38.227
22.1585
6.32777
681.858
681.079
678.445
673.513
661.202
637.495
600.409
555.297
514.296
474.543
438.156
404.276
371.392
338.239
304.23
269.432
233.933
198.663
164.152
130.588
98.2405
67.6165
40.6765
20.1444
6.42213
682.93
682.913
681.793
679.468
668.5
640.838
602.208
559.489
521.523
484.609
449.073
414.484
380.463
346.343
311.856
277.279
241.571
206.03
170.935
136.369
102.565
69.5877
38.0135
12.9118
5.75906
684.069
684.012
683.97
685.47
666.888
630.818
600.81
562.815
530.197
497.403
463.284
426.114
390.017
353.157
317.982
284.194
248.274
210.719
172.552
134.241
96.6036
60.0913
21.4985
8.97449
3.9548
685.349
685.419
685.627
687.283
664.686
626.876
601.451
567.686
534.595
501.575
467.49
423.112
388.963
351.394
316.555
283.434
247.177
207.965
168.058
128.502
90.563
54.268
17.4851
6.96703
2.44598
686.751
687.068
687.782
690.145
665.865
632.035
607.598
569.688
532.014
501.718
468.451
422.564
387.425
351.055
314.755
281.306
245.459
205.44
164.439
124.604
86.6624
50.8775
16.1239
6.16777
2.13208
687.79
688.472
690.458
695.595
674.205
640.552
628.338
572.153
495.82
491.041
463.496
419.976
381.047
349.813
315.549
281.505
244.432
202.753
160.918
121.236
83.5793
48.2682
15.2569
5.81245
1.97244
687.758
688.452
691.16
697.605
678.886
661.952
661.506
656.118
364.652
351.537
319.361
283.48
242.821
200.177
158.076
118.883
81.569
46.8496
14.709
5.61888
1.90122
686.741
687.21
689.459
695.345
684.55
677.883
679.807
686.206
366.783
355.97
321.882
282.71
239.981
197.506
156.452
117.481
80.6381
46.5846
14.5934
5.57916
1.899
685.275
685.54
687.231
692.619
683.379
674.708
669.706
377.994
369.95
353.802
320.204
279.841
236.953
195.053
154.892
116.754
80.4534
46.3602
14.6082
5.55608
1.90214
683.653
683.731
684.927
689.489
678.062
663.392
636.501
558.583
526.988
506.707
471.012
401.522
375.561
350.337
315.335
275.923
233.914
192.827
153.442
115.329
79.2001
45.7911
14.3463
5.33627
1.81076
682.088
681.961
682.598
686.115
672.665
654.959
627.404
571.767
545.32
509.159
468.05
425.27
385.617
348.484
311.153
272.06
230.604
191.529
153.595
115.356
78.5141
44.8276
13.5799
4.95125
1.67917
680.8
680.515
680.347
682.707
667.302
647.16
618.851
584.265
552.008
517.982
471.361
429.766
393.32
353.54
312.912
272.065
227.19
190.455
154.183
116.268
77.2023
43.0956
12.7714
4.64638
1.6043
679.965
679.617
678.968
680.816
664.023
643.019
617.42
585.865
554.168
520.535
472.315
430.579
395.539
356.292
314.285
273.47
229.36
192.496
153.632
115.799
76.0341
41.7231
12.6264
4.89907
1.66044
679.791
679.441
678.409
680.406
663.95
642.525
616.883
585.748
552.092
515.444
476.47
434.281
391.958
351.743
311.29
270.937
230.793
193.814
153.718
114.894
76.618
43.0842
13.5029
5.64247
2.08413
680.045
680.565
680.499
683.647
669.389
646.529
618.372
584.53
548.249
511.692
475.494
430.008
382.939
344.956
306.388
267.928
228.962
192.699
154.983
115.483
78.2395
45.2038
15.9724
7.50561
3.04684
679.155
680.352
683.564
693.334
682.752
655.667
620.096
579.526
538.283
500.363
463.03
411.158
368.418
338.256
302.326
258.876
221.623
188.366
148.179
109.006
78.2735
49.5158
24.5281
13.6327
5.25996
676.143
676.327
676.851
677.816
671.066
651.731
618.454
574.163
530.528
492.236
449.401
400.794
359.026
331.666
308.874
259.625
218.356
195.32
141.534
98.9398
76.2662
53.3204
33.8199
18.6853
6.58904
672.542
671.703
670.197
667.673
660.977
647.487
627.707
586.199
539.739
501.929
458.019
408.464
363.035
329.597
294.558
257.942
224.745
197.501
132.512
97.3849
78.3765
57.0593
39.2746
22.6463
7.98941
669.81
668.527
665.749
660.883
652.603
639.511
617.608
586.282
547.141
510.079
464.197
412.515
365.212
329.058
294.6
261.729
226
193.984
127.219
95.7564
75.9043
57.3327
39.6807
23.2987
7.81456
668.374
666.825
663.284
657.02
647.311
633.433
613.094
582.962
548.361
511.153
468.245
418.946
370.807
330.711
295.118
260.241
220.296
173.442
129.161
100.25
77.0608
58.3922
39.8204
23.4362
6.94371
681.43
680.573
677.763
672.731
661.529
639.438
604.418
560.45
516.954
475.015
436.49
401.756
368.923
335.849
301.932
267.481
232.47
197.742
163.662
130.388
98.1687
67.549
40.5956
20.1027
6.29698
682.395
682.289
680.989
678.129
668.065
644.32
608.471
565.195
523.529
484.007
446.946
412.119
378.302
344.295
309.868
275.62
240.226
205.19
170.492
136.227
102.529
69.4468
37.7533
12.6798
5.64663
683.323
683.086
682.674
683.111
665.7
635.979
604.655
567.564
531.852
496.525
461.184
424.702
388.969
352.539
317.087
282.772
246.709
209.753
172.262
134.264
96.4978
59.4245
20.8379
8.62387
3.79206
684.381
684.191
683.892
684.455
662.057
631.869
604.541
570.864
535.758
500.773
464.442
424.841
388.564
352.468
316.89
282.14
245.56
207.078
167.865
128.467
90.3746
53.5037
16.7532
6.63164
2.29819
685.568
685.569
685.622
686.59
664.396
636.505
610.526
572.033
533
500.949
465.253
424.528
387.638
351.923
315.979
280.81
243.831
204.367
164.044
124.35
86.3074
49.9764
15.4284
5.87468
1.98907
686.482
686.736
687.611
690.071
670.32
647.319
629.113
570.28
507.687
492.469
462.026
420.543
382.076
350.368
316.741
281.007
242.785
201.671
160.544
121.063
83.0403
47.3712
14.6587
5.55316
1.8411
686.548
686.862
688.386
692.069
676.736
663.492
657.893
655.048
374.41
352.255
319.851
283.236
241.871
199.341
157.758
118.701
81.1767
46.2124
14.2214
5.38453
1.77938
685.764
685.983
687.47
691.846
681.388
673.566
671.386
676.182
362.274
356.749
321.714
282.693
239.418
196.804
155.961
117.096
80.1828
46.069
14.1594
5.35819
1.77933
684.502
684.597
685.769
690.187
679.843
669.543
660.311
373.206
368.994
354.831
320.224
280.033
236.84
194.719
154.721
116.535
80.151
45.9138
14.22
5.37262
1.79582
683.035
682.958
683.671
687.151
674.451
657.955
629.316
561.872
532.435
507.815
470.648
395.113
380.57
351.788
316.361
276.16
234.153
193.11
153.46
115.312
79.3689
45.7101
14.1828
5.21906
1.73204
681.622
681.343
681.5
683.667
668.878
649.476
620.052
577.836
546.002
509.845
469.151
427.113
387.57
350.345
312.492
272.871
231.901
191.967
153.163
115.057
78.9095
45.212
13.5061
4.88662
1.60741
680.485
680.082
679.501
680.634
664.337
643.873
616.546
583.51
550.816
514.169
472.151
432.399
392.698
352.469
312.519
272.094
230.296
191.345
153.937
115.884
78.4936
44.1498
12.8497
4.64153
1.52425
679.792
679.375
678.346
679.058
661.977
641.184
615.764
584.781
551.652
515.006
473.573
434.149
394.274
353.22
312.342
272.154
230.809
192.171
154.015
116.114
78.2835
43.9924
12.8202
4.83289
1.59759
679.765
679.401
678.145
679.041
662.421
641.288
615.627
584.558
550.359
513.162
474.091
433.306
391.43
350.472
310.155
270.733
231.07
192.866
154.233
115.992
78.6273
44.8997
13.5129
5.65377
2.12137
680.166
680.738
680.738
683.324
668.405
645.538
617.492
583.792
547.218
509.326
470.703
427.623
384.246
345.004
306.27
267.964
228.863
191.732
154.322
116.115
79.7549
46.8921
16.2554
7.68359
3.29738
679.359
680.67
684.262
694.531
682.121
654.529
619.263
579.31
537.561
497.072
457.065
411.639
370.071
335.979
299.773
259.711
222.456
186.931
147.52
110.156
79.4317
50.8314
25.3284
14.6791
5.55344
676.322
676.616
677.35
678.396
670.489
649.752
617.256
574.906
530.833
489.261
446.099
400.623
359.443
327.033
290.417
251.373
216.025
177.797
136.218
103.11
78.2935
55.0259
34.5065
19.4187
6.74136
672.652
671.866
670.471
667.974
660.64
645.734
620.189
581.692
539.954
499.614
454.852
406.975
362.886
327.098
291.458
254.628
218.669
175.619
132.775
102.759
80.7573
58.9766
39.7316
22.8993
7.93366
669.887
668.625
665.906
661.074
652.56
638.778
616.5
582.931
545.971
506.762
461.365
412.033
365.999
327.834
292.064
256.479
218.997
173.902
131.2
101.69
80.1431
59.6242
40.3518
23.4471
7.67931
668.436
666.881
663.358
657.125
647.369
633.261
612.564
582.736
547.17
508.336
464.727
417.162
370.823
330.165
293.148
256.643
217.241
174.01
133.459
104.196
81.29
60.6669
40.7566
23.7176
6.97313
681.06
680.158
677.251
672.305
661.887
641.158
607.501
563.834
518.501
474.942
434.996
399.744
367.039
334.137
300.419
266.22
231.553
197.144
163.292
130.184
98.0485
67.4519
40.4686
20.0013
6.10718
681.931
681.781
680.388
677.321
668.179
646.796
612.513
569.028
525.015
483.643
445.426
410.385
376.781
342.832
308.526
274.35
239.264
204.537
170.145
136.013
102.362
69.2533
37.5337
12.4671
5.48895
682.682
682.333
681.742
681.838
665.47
638.584
607.526
570.418
533.219
496.375
460.231
423.899
388.263
351.799
316.086
281.339
245.251
208.87
171.79
134.011
96.4081
58.9405
20.3834
8.40731
3.68728
683.536
683.206
682.624
682.783
661.043
633.833
606.471
572.743
536.693
500.578
463.229
425.082
388.445
352.534
316.478
280.803
244.112
206.102
167.475
128.126
90.0273
52.8292
16.2767
6.42427
2.19321
684.532
684.347
683.946
684.256
663.329
637.711
611.302
573.217
534.406
500.718
463.939
425.126
388.146
352.383
316.228
279.83
242.248
203.286
163.643
123.902
85.7235
49.2291
14.9476
5.67989
1.88265
685.327
685.309
685.422
686.733
668.626
647.306
625.841
568.862
519.908
494.415
461.363
421.384
383.995
351.09
316.941
279.958
241.123
200.685
160.167
120.708
82.4312
46.7535
14.2645
5.38602
1.74101
685.458
685.512
686.202
688.649
674.545
659.888
647.836
638.003
380.742
350.48
319.439
281.797
240.445
198.473
157.404
118.505
80.7537
45.7491
13.9254
5.24252
1.68839
684.864
684.877
685.734
689.041
677.848
667.03
656.99
655.52
358.637
352.715
320.052
281.21
238.314
196.088
155.545
116.777
79.8399
45.5391
13.8927
5.2232
1.69022
683.796
683.735
684.425
687.834
676.115
663.173
647.586
360.488
365.87
352.866
318.803
278.935
236.288
194.406
154.515
116.314
80.0235
45.57
13.9604
5.26076
1.71483
682.496
682.281
682.549
685.063
671.095
653.021
624.333
566.743
538.445
508.425
470.467
404.374
383.781
352.085
316.21
275.666
234.013
192.986
153.228
115.471
79.5404
45.6684
14.0775
5.15136
1.67023
681.237
680.836
680.597
681.804
665.782
645.502
617.448
579.683
546.059
509.95
470.131
428.561
388.945
351.383
312.865
272.882
232.357
191.796
152.468
114.907
79.2357
45.3456
13.4449
4.85822
1.55609
680.246
679.753
678.805
679.072
661.971
641.344
615.199
583.057
549.281
512.396
472.531
433.153
392.575
352.139
312.067
272.02
231.358
191.542
153.121
115.477
79.1815
44.8741
12.9456
4.6682
1.48539
679.695
679.223
677.901
677.782
660.273
639.586
614.537
583.767
549.754
512.778
473.599
434.427
393.442
351.801
311.142
271.563
231.206
191.892
153.806
116.058
79.6239
45.4459
13.0918
4.8692
1.59761
679.8
679.416
678.009
678.205
661.256
640.212
614.558
583.455
548.903
511.352
472.355
432.258
390.708
349.275
309.183
270.289
230.948
192.258
154.417
116.687
80.2805
46.4198
13.7691
5.75257
2.20487
680.319
680.931
680.913
683.232
667.625
644.64
616.622
583.011
546.231
507.396
467.514
426.083
384.168
344.285
305.765
267.612
228.471
190.91
154.116
116.913
81.4098
48.3901
16.7105
7.92588
3.55041
679.581
680.982
684.77
695.179
681.667
653.602
618.488
579.051
537.191
495.069
453.792
411.058
370.293
334.034
297.671
259.602
222.38
186.157
148.186
111.909
80.9545
52.0343
26.2902
15.3725
5.78808
676.527
676.886
677.741
678.705
669.903
648.417
616.403
575.135
531.107
487.875
444.205
400.028
359.161
323.924
288.094
250.622
214.57
177.306
139.077
106.879
80.3941
56.4035
35.2582
19.9017
6.7796
672.789
672.032
670.703
668.135
660.289
644.556
618.538
581.165
539.869
498.201
452.922
406
362.405
324.827
288.56
251.708
215.17
175.837
137.042
106.962
82.9358
60.3815
40.0935
22.8683
7.69711
669.978
668.726
666.053
661.237
652.47
638.167
615.465
582.703
544.999
504.523
459.4
411.497
366.164
326.764
289.875
253.1
215.352
174.492
135.58
106.22
83.1177
61.3258
40.8905
23.3305
7.36985
668.507
666.944
663.436
657.251
647.374
632.911
611.754
581.922
545.759
505.871
462.172
415.706
370.425
329.457
291.62
254.371
215.543
174.778
136.757
107.402
83.9394
62.2871
41.5102
23.6931
6.89522
680.778
679.857
676.932
672.088
662.179
642.395
609.506
565.871
519.396
474.862
434.275
398.747
365.969
333.15
299.522
265.417
230.94
196.696
162.958
129.909
97.8378
67.2937
40.3235
19.9313
5.96556
681.581
681.428
680.005
676.957
668.447
648.421
615.017
571.378
526.02
483.528
444.67
409.548
375.891
341.841
307.621
273.451
238.553
203.996
169.757
135.679
102.052
69.0335
37.375
12.2985
5.39358
682.2
681.8
681.16
681.277
665.489
639.923
609.382
572.264
534.295
496.535
459.929
423.642
387.851
351.068
315.063
280.075
244.108
208.058
171.172
133.495
96.1983
58.7233
20.2009
8.33958
3.65474
682.892
682.495
681.75
681.872
660.583
634.749
607.522
573.794
537.548
500.807
462.849
425.057
388.446
352.247
315.721
279.529
242.904
205.243
166.872
127.574
89.5598
52.4635
16.0969
6.35162
2.15743
683.732
683.433
682.746
682.87
662.381
637.698
611.062
574.33
536.078
500.817
463.531
425.343
388.584
352.495
315.858
278.721
241.049
202.438
163.059
123.243
84.937
48.7117
14.6731
5.58124
1.8301
684.419
684.241
683.89
684.723
666.951
645.36
620.941
572.73
528.715
497.872
462.491
423.046
386.098
351.737
316.3
278.479
239.688
199.818
159.529
119.937
81.6598
46.3381
14.0462
5.3083
1.69029
684.587
684.481
684.601
686.43
671.884
654.557
634.82
571.096
520.883
500.187
462.356
415.384
380.431
350.6
317.678
279.174
238.66
197.478
156.901
117.962
80.2941
45.493
13.7915
5.19614
1.64748
684.134
684.006
684.369
686.875
674.193
659.613
639.906
551.25
525.951
502.93
464.33
414.631
372.674
350.4
317.596
278.562
236.797
195.242
155.099
116.342
79.3548
45.1479
13.8094
5.18474
1.65646
683.241
683.063
683.32
685.822
672.489
656.383
632.428
538.537
535.477
505.726
465.447
409.164
375.259
351.21
316.453
276.903
235.292
193.934
154.232
116.142
79.7489
45.3496
13.8788
5.22433
1.67701
682.102
681.792
681.681
683.374
668.116
648.665
620.185
573.297
542.267
508.151
468.704
420.047
385.63
351.929
314.637
274.356
233.481
192.684
152.972
115.493
79.6128
45.7865
14.0488
5.13173
1.63876
680.988
680.519
679.94
680.474
663.393
642.668
615.658
580.452
545.983
509.804
470.77
429.956
390.238
351.791
312.248
272.316
232.274
191.511
151.953
114.977
79.4521
45.3878
13.4467
4.87447
1.53833
680.127
679.607
678.339
678.009
660.161
639.352
614.053
582.618
548.186
511.384
472.547
433.334
392.637
351.902
311.378
271.549
231.503
191.337
152.439
115.407
79.7284
45.4484
13.1208
4.73753
1.48641
679.697
679.224
677.698
677.068
658.989
638.297
613.544
582.903
548.407
511.447
473.132
433.975
392.637
350.882
310.408
270.924
230.969
191.55
153.298
116.181
80.4939
46.3419
13.392
4.97903
1.64106
679.908
679.507
677.993
677.805
660.339
639.223
613.703
582.55
547.713
510.066
471.138
431.209
389.667
348.252
308.485
269.741
230.587
191.883
154.311
117.186
81.3814
47.3833
14.0808
5.94714
2.3645
680.51
681.151
681.066
683.133
666.974
643.887
615.787
582.138
545.106
505.836
465.562
424.797
383.618
343.503
305.047
267.033
227.965
190.156
154.113
117.559
82.5733
49.4202
17.124
8.2086
3.83731
679.806
681.297
685.205
695.63
681.173
652.751
617.654
578.578
536.734
493.773
451.841
410.329
370.09
332.628
296.003
258.815
221.8
185.638
148.95
113.649
82.4378
53.0382
27.0884
15.8762
6.02477
676.734
677.154
678.06
678.884
669.35
647.467
615.717
574.846
530.936
486.975
443.024
399.586
358.869
322.118
286.211
249.549
213.394
176.847
140.811
109.337
81.969
57.5067
35.9555
20.257
6.80304
672.935
672.179
670.851
668.217
660.009
643.748
617.406
580.536
539.328
496.877
451.534
405.457
362.224
323.543
286.846
250.019
213.393
175.794
139.565
109.566
84.3923
61.3854
40.4848
22.8761
7.49535
670.08
668.813
666.137
661.33
652.403
637.719
614.717
582.262
544.009
502.578
457.799
411.117
366.272
326.069
288.674
251.521
213.837
174.969
138.498
109.067
84.8202
62.4362
41.4873
23.434
7.17833
668.589
667.016
663.497
657.323
647.361
632.578
610.982
581.028
544.427
503.92
460.285
414.656
370.101
328.975
290.659
253.074
214.696
175.709
139.375
109.882
85.5837
63.3887
42.2869
23.9629
6.9702
680.598
679.707
676.79
672.044
662.292
643.022
610.571
566.898
519.899
474.982
434.25
398.578
365.536
332.584
298.943
264.916
230.551
196.366
162.667
129.596
97.543
67.0575
40.1755
19.9757
5.88262
681.367
681.257
679.841
676.981
668.664
649.35
616.326
572.577
526.683
483.597
444.479
409.352
375.413
341.234
306.97
272.776
238.11
203.57
169.355
135.3
101.702
68.7788
37.2558
12.2297
5.43669
681.897
681.522
680.884
681.247
665.474
640.628
610.397
573.344
535.131
496.817
459.867
423.67
387.363
350.255
314.096
279.043
243.446
207.516
170.621
133.096
95.9179
58.6101
20.3
8.40634
3.72447
682.476
682.085
681.267
681.503
660.234
635.178
607.945
574.367
538.293
501.157
462.706
424.973
388.349
351.726
314.874
278.468
241.996
204.662
166.247
126.929
89.0446
52.1461
16.1843
6.40404
2.20114
683.196
682.877
682.036
682.156
661.465
637.238
610.499
575.304
537.801
501.217
463.45
425.448
388.816
352.349
315.253
277.73
240.156
201.77
162.313
122.381
84.1594
48.18
14.5806
5.58957
1.84194
683.796
683.555
682.946
683.605
665.273
642.859
616.737
575.639
534.785
500.603
463.316
424.47
387.546
351.913
315.248
276.96
238.408
199.081
158.709
118.904
80.9291
45.9678
13.967
5.33148
1.70401
683.983
683.808
683.554
685.027
669.174
649.293
624.595
575.397
531.771
500.726
462.659
421.355
384.531
351.235
315.403
276.543
236.8
196.524
156.25
117.069
79.8783
45.3639
13.8154
5.251
1.67117
683.634
683.446
683.432
685.368
670.741
652.742
627.412
571.198
533.84
502.613
463.885
420.356
381.747
350.388
315.17
276.018
235.173
194.419
154.553
115.699
78.8329
44.9238
13.9086
5.24972
1.68389
682.889
682.675
682.57
684.388
669.112
650.331
623.107
570.325
538.684
505.119
465.511
420.679
383.353
350.701
314.235
274.835
234.024
193.339
153.84
115.824
79.2882
45.2095
13.9791
5.27694
1.69914
681.888
681.575
681.197
682.228
665.384
645.009
617.17
577.451
543.367
507.742
468.407
426.081
388.235
351.508
312.859
272.817
232.643
192.381
152.971
115.559
79.4953
45.894
14.1091
5.17997
1.65699
680.898
680.459
679.64
679.592
661.438
640.559
614.372
580.825
545.845
509.306
470.881
431.029
391.263
351.762
311.334
271.483
231.927
191.39
152.009
115.236
79.511
45.3399
13.5358
4.9555
1.56863
680.146
679.691
678.275
677.404
658.73
637.926
613.009
582.089
547.437
510.609
472.208
433.208
392.577
351.624
310.66
270.869
231.218
191.127
152.197
115.503
80.2512
45.8847
13.381
4.86161
1.53616
679.809
679.41
677.838
676.961
657.91
637.3
612.824
582.176
547.446
510.589
472.446
433.218
391.893
350.238
309.824
270.173
230.393
191.253
152.847
116.321
81.2361
46.9803
13.7359
5.15378
1.74716
680.091
679.75
678.179
677.737
659.508