/*--------------------------------*- C++ -*----------------------------------*\
  =========                 |
  \\      /  F ield         | OpenFOAM: The Open Source CFD Toolbox
   \\    /   O peration     | Website:  https://openfoam.org
    \\  /    A nd           | Version:  6
     \\/     M anipulation  |
\*---------------------------------------------------------------------------*/
FoamFile
{
    version     2.0;
    format      ascii;
    class       volScalarField;
    location    "50";
    object      epsilon;
}
// * * * * * * * * * * * * * * * * * * * * * * * * * * * * * * * * * * * * * //

dimensions      [0 2 -3 0 0 0 0];

internalField   nonuniform List<scalar> 
230684
(
0.194902
0.172194
0.151386
0.13788
0.243463
0.213514
0.192525
0.0873464
0.0836859
0.0819553
0.0805184
0.0794027
0.0778561
0.0778127
0.0788209
0.0812909
0.0856115
0.0923574
0.10223
0.116457
0.136814
0.161804
0.191323
0.226636
0.255307
0.193404
0.174646
0.30054
0.239953
0.373264
0.354051
0.67956
0.278146
0.213955
0.176463
0.153872
0.145507
0.143783
0.162255
0.200606
0.252033
0.305886
0.385218
0.498766
0.631215
0.758203
0.854285
0.878122
0.865149
0.755684
0.193963
0.173707
0.306358
0.423346
0.348201
1.44538
0.893723
0.771453
0.64219
0.435268
0.37977
0.403103
0.392364
0.349345
0.335292
0.415126
0.598891
0.88897
1.20844
1.40346
1.48569
1.495
1.164
0.69149
0.567448
0.199033
0.333028
0.529839
0.389978
0.240528
1.59978
1.28479
0.83084
0.503321
0.681033
0.837308
3.85964
1.357
0.859844
0.663042
0.346095
0.433695
0.47972
0.486237
0.467674
0.46032
0.471266
0.356468
0.237336
0.208263
0.193672
0.174222
0.301329
0.401874
0.285766
0.295478
0.349785
0.505631
0.606419
0.324066
0.706491
5.9965
1.57013
0.657031
0.57564
0.220738
0.536985
0.641183
0.51335
0.398218
0.352672
0.363009
0.279071
0.172131
0.147892
0.193722
0.173768
0.300193
0.369809
0.326906
0.580371
0.268351
0.285698
1.67143
1.62084
1.21086
1.89568
1.05467
0.376515
0.253208
0.135131
0.282243
0.271234
0.229132
0.200591
0.184139
0.206999
0.232882
0.161399
0.148538
0.193855
0.173749
0.300556
0.371869
0.918554
0.533961
0.143694
0.281406
0.237433
0.157861
0.106536
0.157757
0.197657
0.200716
0.158719
0.59903
1.00266
1.04886
0.829346
0.633589
0.518038
0.457713
0.345998
0.192005
0.165633
0.194076
0.173772
0.304339
0.404757
0.252055
0.184557
0.103187
2.1285
1.21662
0.742976
0.469335
0.382798
1.15145
1.81259
2.91375
3.42152
2.96627
2.07238
1.28922
0.820356
0.606178
0.504376
0.30577
0.176737
0.150797
0.194176
0.173916
0.306372
0.419362
0.28353
0.198622
0.127293
2.17948
1.39409
0.912821
0.613778
0.447771
1.94766
2.91639
4.07341
4.13091
3.1503
1.96149
1.09781
0.686588
0.496708
0.411346
0.254834
0.171885
0.147434
0.194222
0.174004
0.307168
0.424405
0.292161
0.212388
0.159069
0.440256
1.3071
0.668863
0.426937
0.612546
0.85406
0.257484
0.818762
2.356
3.11284
2.10822
1.21154
0.765149
0.5594
0.471919
0.345542
0.229678
0.188139
0.19423
0.174098
0.307662
0.423858
0.284447
0.609199
0.259433
0.755699
0.586364
0.403671
0.39103
0.51039
0.603953
1.12366
0.571104
0.519966
0.512296
0.688357
0.836118
0.845261
0.788418
0.717412
0.492618
0.263352
0.232312
0.194301
0.174062
0.308415
0.432193
0.305384
0.227016
0.381206
0.162975
0.61343
0.466192
0.339125
0.345604
0.0733653
0.204281
0.317026
0.183446
0.213805
0.249365
3.92112
2.35914
0.747281
0.507917
0.297338
0.191213
0.180739
0.194327
0.174069
0.309075
0.438692
0.314919
0.245209
0.211376
0.302542
0.444244
0.325611
0.337036
0.645606
0.249602
0.350137
0.816664
0.608483
0.054663
0.358728
2.50284
0.861442
0.435234
0.176306
0.171329
0.176851
0.11724
0.19433
0.1741
0.309413
0.442258
0.321753
0.253106
0.212493
0.188824
0.265178
0.346369
0.403364
0.646254
1.39516
0.728327
0.701567
0.399202
0.183471
0.310928
4.00397
1.31077
2.30436
0.648319
0.53691
0.193925
0.090581
0.194312
0.174107
0.309534
0.443354
0.323346
0.254067
0.211618
0.199114
0.346974
0.511427
0.558998
3.29553
2.63825
1.26634
0.373491
0.549612
0.657658
0.533594
0.458693
0.481219
0.56383
1.27967
1.45098
0.654757
0.1591
0.192756
0.176905
0.299986
0.241168
0.199177
0.168568
0.1462
0.13086
0.122683
0.129426
0.28774
5.92474
2.15717
1.42894
0.728899
0.795139
0.378524
0.358589
0.577104
1.19243
0.654017
0.489348
0.237482
0.163676
0.148284
0.195574
0.17213
0.151903
0.137385
0.122763
0.113708
0.200894
0.172223
0.0809042
0.140318
0.23584
0.225351
2.35304
1.2092
0.701767
0.298694
0.411319
0.56424
1.51286
0.784896
0.730571
0.290685
0.259386
0.5143
0.401347
0.196689
0.170316
0.153739
0.134819
0.126054
0.213874
0.355333
0.335657
0.223256
0.117878
0.181473
0.24698
0.280369
0.506669
0.399856
0.485954
0.398292
0.331628
9.28562
3.53086
2.08761
1.02196
0.807132
0.739172
0.576439
0.195684
0.172123
0.151826
0.137633
0.122858
0.114355
0.194349
0.44197
0.189963
0.0870182
0.149676
0.561874
0.897821
0.278269
0.229243
0.205861
0.184101
0.353009
6.83941
4.07889
0.973918
0.595764
0.519518
0.490914
0.408956
0.196042
0.1715
0.152611
0.136696
0.124413
0.113169
0.10469
0.0965749
0.0905699
0.0838922
0.0789975
0.146042
0.134139
0.0627283
0.0620506
0.0612618
0.120351
0.248837
0.428088
0.195623
0.102169
0.111212
0.118783
0.125573
0.13201
0.0369705
0.041325
0.0446766
0.0490093
0.0608269
0.068618
0.0680352
0.0735468
0.0664958
0.06048
0.0556354
0.0515548
0.0484819
0.0461497
0.0450657
0.0456157
0.048242
0.0535229
0.0620546
0.0742968
0.0902372
0.108152
0.12529
0.143479
0.157124
0.0371482
0.0407645
0.0549311
0.0580336
0.12634
0.428971
0.574948
0.623762
0.341489
0.238816
0.194943
0.170382
0.150664
0.132894
0.125206
0.135496
0.159332
0.198158
0.254195
0.31832
0.378058
0.431571
0.437303
0.529018
0.477495
0.0374676
0.0416984
0.0545109
0.0728001
0.425956
3.66187
2.55258
1.52585
1.05121
0.770343
0.533727
0.373245
0.293644
0.28754
0.336402
0.425601
0.522676
0.579559
0.611674
0.627686
0.575859
0.44282
0.386797
0.0377552
0.0481193
0.0555366
0.115104
0.285704
1.44217
0.828078
0.620528
0.601115
6.75843
1.17222
0.497572
0.349126
0.284458
0.233863
0.198983
0.184537
0.188034
0.169084
0.133636
0.130565
0.0378677
0.0427729
0.0576512
0.0805069
0.11993
0.554768
0.465874
0.978818
1.63897
1.299
0.979273
4.16253
1.81061
0.77694
0.346203
0.177947
0.108698
0.0843453
0.0962953
0.104956
0.0870995
0.0819161
0.0379544
0.0429312
0.0612144
0.0903569
0.449576
2.06174
1.99505
1.40902
2.30016
4.21243
2.63188
1.43505
0.962945
0.584299
0.343166
0.197999
0.123498
0.0953819
0.0989272
0.0915995
0.0835679
0.037773
0.0424095
0.0602128
0.0927346
0.930719
0.231704
1.7323
0.813568
0.827041
0.985012
1.05433
0.744556
0.455354
0.280029
0.181568
0.134935
0.116792
0.0995404
0.0850987
0.037474
0.0421128
0.0517961
0.0744446
0.151588
0.223347
0.298576
0.952324
1.53192
0.751884
1.0579
1.36418
1.09379
0.699144
0.414206
0.233124
0.1343
0.104889
0.099415
0.0878144
0.0800351
0.0372662
0.0409657
0.0502589
0.0679419
0.0689966
0.0691969
0.0961116
0.912229
1.03449
1.21326
1.16761
0.919602
0.61493
0.346145
0.181801
0.105586
0.0943964
0.0952574
0.0921691
0.0794358
0.0371558
0.0405336
0.0509596
0.0662568
0.0659605
0.0650847
0.0809612
0.778232
3.11
2.94427
2.73845
3.05337
1.59381
1.76928
2.54247
2.86008
0.900457
0.584411
0.416301
0.26457
0.169767
0.131039
0.127716
0.117117
0.102861
0.037066
0.0402917
0.0507154
0.0659789
0.119292
1.11134
0.578163
1.09096
0.538709
0.483014
0.425891
0.421859
0.393222
0.35545
0.314569
0.288444
0.249078
0.214692
0.192648
0.169155
0.141938
0.0369517
0.0400704
0.0498594
0.0647986
0.0671201
0.140323
1.05416
0.53324
0.103189
0.388543
1.29801
1.92088
0.984639
0.506297
0.341881
0.254442
0.189442
0.144284
0.0367928
0.0401129
0.0481227
0.0635438
0.061716
0.0609675
0.0818098
0.494122
0.833044
0.488544
1.37274
1.48079
0.478255
0.911683
1.24999
0.219529
0.455793
0.837528
0.355044
0.222688
0.128734
0.0367514
0.0394824
0.0490484
0.0626138
0.0597381
0.0547748
0.0508286
0.0721339
0.151672
0.200091
0.247236
0.983085
2.18758
0.688064
0.951818
1.63328
0.625236
0.453283
4.7705
1.00371
0.702911
0.368627
0.213891
0.0366329
0.0398385
0.0476475
0.0621478
0.0588815
0.0531285
0.0476121
0.0718323
0.151953
0.20306
0.251818
4.05946
3.12147
2.50932
1.14061
0.584296
0.389567
0.354541
0.496599
0.794259
1.12314
1.79217
0.72844
0.196321
0.0366051
0.040379
0.0487172
0.0526398
0.051161
0.0478809
0.0446088
0.0426073
0.0477545
0.0612071
0.12652
12.6813
3.34441
2.87764
0.98584
0.594479
0.912416
0.363534
0.241154
0.0368014
0.0402979
0.0416513
0.0423134
0.042014
0.040534
0.0451654
0.0488248
0.0597047
0.0524098
0.0550764
0.439377
0.0318511
1.28256
1.9091
2.98401
1.71574
1.09471
0.772478
0.672231
0.605354
0.443871
0.0368591
0.0402749
0.0417049
0.0423381
0.041538
0.0484624
0.0536727
0.784978
0.602052
0.303452
0.197333
0.124266
0.371185
4.57711
1.59303
1.03316
0.655619
3.4483
6.67936
1.69163
1.17972
0.971186
0.664247
0.0368158
0.0402907
0.0416358
0.0422968
0.0420823
0.0411144
0.0505307
1.80503
0.440111
0.14258
0.127368
0.313218
0.841817
0.21891
0.23204
0.241193
1.05626
4.76075
3.4046
1.01475
0.73569
0.619343
0.434634
0.036818
0.0402285
0.0416162
0.0420704
0.0416872
0.0410222
0.0409266
0.0407534
0.0398172
0.0397695
0.0394891
0.0469774
0.0480344
0.0392821
0.0400644
0.0419464
0.050029
0.102057
1.39975
0.410774
0.182065
0.175287
0.152095
0.144225
0.135819
0.0295393
0.0294374
0.0299831
0.0315676
0.0355247
0.0400122
0.0416669
0.0447384
0.0431909
0.0407306
0.0394676
0.0381577
0.0371359
0.0376168
0.0392392
0.0428099
0.0493017
0.0596225
0.0739098
0.0913606
0.110782
0.130575
0.148333
0.16494
0.176369
0.0295491
0.0295126
0.0308064
0.0326357
0.072964
0.123316
0.155542
0.151111
0.124639
0.108268
0.0981518
0.0899059
0.0920868
0.0998368
0.116245
0.14453
0.18837
0.248327
0.317357
0.385701
0.446125
0.496664
0.512607
0.591407
0.497466
0.0296184
0.0296487
0.0311643
0.0354358
0.201772
1.95127
1.17751
0.582734
0.358574
0.287526
0.268234
0.252444
0.207726
0.179705
0.207573
0.277288
0.3689
0.468818
0.558668
0.623655
0.663955
0.690147
0.619609
0.461836
0.392905
0.0296537
0.0296377
0.0308314
0.0352595
0.0850759
1.56799
0.936625
0.392823
0.278981
0.247578
0.23769
0.55524
0.490588
0.332548
0.236958
0.199589
0.187296
0.182541
0.175763
0.172152
0.171793
0.174812
0.148766
0.113701
0.11466
0.0297035
0.0299007
0.0322858
0.0381498
0.116675
1.06266
2.12618
1.67606
1.64413
1.24906
0.876261
1.35859
1.40531
1.00133
0.550762
0.322245
0.209515
0.139043
0.0896809
0.0622053
0.0526481
0.0553851
0.0605312
0.0540336
0.0548037
0.0297045
0.0300813
0.0334145
0.0484695
0.638834
2.77813
2.93726
2.65484
2.10702
1.7486
1.05284
0.61363
0.36249
0.236697
0.159177
0.10676
0.0755509
0.0593878
0.0545132
0.058502
0.0554384
0.0529434
0.0296531
0.0298729
0.0327853
0.0484278
4.43051
1.69515
1.35695
0.884573
0.647238
0.393283
0.257501
0.192075
0.156752
0.125481
0.0920939
0.0733122
0.0674699
0.0583395
0.0548397
0.02959
0.0296861
0.0310721
0.0371516
0.108189
0.217134
0.332249
2.03492
0.606083
1.05018
1.35572
1.06216
0.655443
0.428783
0.285735
0.171425
0.0896351
0.0632175
0.063697
0.0570144
0.0545167
0.0295707
0.0294791
0.0304653
0.0336553
0.036641
0.044557
0.16222
1.30285
0.884821
1.51937
1.33127
0.800897
0.55334
0.413079
0.276711
0.154576
0.0773757
0.0596954
0.0643305
0.0591856
0.0549371
0.0295429
0.029372
0.0303465
0.0328187
0.0344824
0.0388
0.0783591
1.36033
2.05843
2.96056
3.73508
2.5708
1.88955
1.4662
0.703023
0.267845
0.201806
0.19251
0.190717
0.13753
0.0845298
0.0702181
0.0723951
0.0668738
0.0647293
0.0295315
0.02933
0.0302485
0.0326613
0.0363154
0.0765052
0.72097
5.70653
4.04705
3.39575
2.97023
1.58499
0.948877
0.617117
0.364315
0.231559
0.190224
0.182414
0.180229
0.173585
0.139413
0.11571
0.107035
0.0998592
0.0899446
0.0295152
0.0292763
0.0300782
0.0322513
0.0342808
0.0428582
0.158801
0.609237
1.31033
2.32755
1.65369
1.79636
1.42277
1.22586
1.19701
1.12364
0.813343
0.410799
0.378334
0.289549
0.237747
0.198676
0.148971
0.11331
0.0981391
0.0294913
0.0292261
0.02995
0.0317568
0.0322858
0.0344997
0.0441885
0.103405
0.259356
0.798159
3.09963
2.5124
2.73256
1.73061
0.797288
0.810466
0.496488
0.452545
1.74029
1.28967
0.71748
0.412283
0.190128
0.10483
0.0811892
0.0294747
0.0291582
0.0298617
0.0314578
0.0314198
0.0317285
0.0383043
0.092339
0.140709
0.148803
0.177861
0.252184
0.379962
0.358144
0.317311
0.260224
0.218969
0.191575
0.285434
0.744326
0.629707
0.327046
0.175513
0.120658
0.100368
0.0294588
0.0291364
0.0297957
0.0312899
0.0310294
0.0307062
0.0371958
0.0945582
0.147859
0.13739
0.128515
0.721393
2.51669
2.28603
1.07567
0.57771
0.349384
0.224532
0.172345
0.19818
0.247625
0.252331
0.190779
0.165583
0.13487
0.0294513
0.0291959
0.0299283
0.0301902
0.0299448
0.0293847
0.0294224
0.0340747
0.0456493
0.0675368
0.0968234
0.8068
1.45147
0.881836
0.904496
1.33659
0.885214
0.489508
0.353748
0.258378
0.225007
0.217339
0.223684
0.248802
0.227199
0.0294641
0.0291258
0.0288081
0.0284771
0.0281587
0.0274351
0.0285486
0.0301054
0.0348732
0.0349429
0.0411178
0.266116
1.37725
1.75029
1.84817
1.70925
0.861323
0.679782
0.631686
0.548316
0.486738
0.372837
0.357259
0.351776
0.308009
0.0294676
0.0291242
0.0288054
0.0284742
0.0280124
0.0293513
0.0321021
0.27081
0.298346
0.164351
0.139773
0.106722
0.116312
0.143005
0.200648
0.243104
0.253302
0.324193
1.41257
0.947787
0.701223
0.444615
0.401316
0.367609
0.309389
0.0294646
0.0291202
0.0288026
0.0285099
0.0280269
0.0275828
0.0315999
1.36294
0.18919
0.0733379
0.085184
0.095278
0.0953234
0.0952952
0.0680196
0.0723932
0.0922385
0.297238
1.14392
0.647744
0.326709
0.306477
0.274853
0.263362
0.217729
0.0294622
0.0291177
0.0287878
0.0284568
0.0280632
0.0276027
0.0273754
0.0272607
0.0266753
0.0269873
0.0273661
0.0278406
0.0275958
0.0270976
0.0273779
0.027553
0.0347462
0.0501471
0.0852903
0.120028
0.0842307
0.0925125
0.093074
0.101802
0.0974306
0.0292613
0.0280464
0.0273208
0.0276099
0.0288971
0.030401
0.031043
0.0314275
0.0314279
0.0311468
0.0309343
0.0309344
0.0315932
0.0334301
0.037119
0.043777
0.0544622
0.0695324
0.0884174
0.109919
0.132526
0.154885
0.174546
0.191451
0.202368
0.0292686
0.0281094
0.0276991
0.0280734
0.0327565
0.0453085
0.0542106
0.0567048
0.0575229
0.0576391
0.0584733
0.0610902
0.0697142
0.0883637
0.11777
0.1608
0.220568
0.292831
0.368642
0.44017
0.502574
0.55224
0.563972
0.628359
0.526155
0.0292934
0.0281651
0.0278572
0.0286186
0.0399032
0.124636
0.151808
0.134729
0.12232
0.115091
0.104229
0.0943263
0.102707
0.136811
0.196182
0.276845
0.372768
0.473367
0.5635
0.631794
0.679856
0.71668
0.63773
0.467332
0.400384
0.0293266
0.0281829
0.0279548
0.0287037
0.034892
0.0841116
0.108405
0.109989
0.117648
0.121864
0.11985
0.120128
0.11658
0.113359
0.111787
0.11548
0.124549
0.133629
0.140506
0.146733
0.151268
0.15583
0.128559
0.0980705
0.104265
0.0293472
0.0281883
0.0282811
0.0301015
0.0461296
0.170014
0.314026
0.39008
0.790251
0.938596
0.798773
0.5821
0.399042
0.276274
0.188582
0.134488
0.101173
0.074638
0.0525941
0.0401737
0.0354678
0.0352613
0.0354376
0.0345564
0.0369141
0.0293236
0.0282166
0.028732
0.0336076
0.16418
0.822027
0.782244
2.09979
4.22549
2.68183
2.71938
2.45927
1.59813
0.805135
0.347177
0.176584
0.116958
0.0847304
0.0619067
0.0466526
0.0368423
0.0334756
0.0330835
0.0317319
0.0323504
0.0293163
0.0281226
0.0285381
0.0335509
0.232791
0.763249
0.67244
2.03595
1.08872
0.855574
0.514263
0.281665
0.175198
0.136751
0.115831
0.09022
0.0588616
0.0402577
0.0357341
0.033136
0.033145
0.029295
0.0280747
0.0279756
0.0295809
0.0396052
0.088115
0.225573
4.32491
0.622754
1.1648
1.03218
0.651196
0.398635
0.273803
0.202572
0.139539
0.0781715
0.0439329
0.0373723
0.0339781
0.0338114
0.029287
0.0280628
0.0276723
0.02789
0.0291552
0.0360168
0.262229
1.48373
0.803599
1.28658
0.892766
0.511543
0.360017
0.27342
0.201164
0.130782
0.0686413
0.0410252
0.0374771
0.0344969
0.0342139
0.0292849
0.0280556
0.0275567
0.0274192
0.0278146
0.0308319
0.075081
1.89404
2.9725
3.87456
3.33153
2.56334
1.6152
0.885294
0.335722
0.194169
0.161769
0.149393
0.133294
0.0941599
0.0544803
0.0400126
0.0384498
0.0371656
0.0374371
0.0292855
0.0280508
0.0275088
0.0272924
0.0278158
0.0311187
0.0719539
0.496542
0.815411
1.03004
1.0285
0.865771
0.598777
0.337601
0.167602
0.120209
0.114759
0.1121
0.105937
0.0914376
0.0711179
0.059142
0.0553024
0.0522722
0.0498557
0.0292833
0.0280408
0.0274576
0.0271226
0.0273442
0.0298897
0.050516
0.14629
0.386405
0.89339
1.26338
1.10677
0.873927
0.456135
0.200309
0.12836
0.122111
0.130902
0.136953
0.146324
0.137153
0.113517
0.086175
0.0672294
0.0608801
0.0292764
0.0280237
0.0274026
0.0269239
0.0265911
0.027572
0.0415046
0.0950316
0.126491
0.172743
0.281555
0.280475
0.227008
0.180732
0.149485
0.13584
0.136757
0.130305
0.124129
0.228637
0.237931
0.157522
0.0904734
0.0656783
0.0576191
0.0292701
0.0280068
0.0273617
0.0267991
0.0261347
0.0263753
0.0408538
0.105233
0.11752
0.0944638
0.0946621
0.112967
0.130309
0.140647
0.140341
0.137803
0.12639
0.10588
0.0965495
0.12051
0.142234
0.130958
0.0967344
0.0799017
0.0739684
0.0292667
0.0279915
0.0273289
0.0267335
0.0259426
0.0258287
0.04089
0.10898
0.131419
0.0906232
0.0657587
0.077804
0.187758
0.299025
0.30727
0.269054
0.190901
0.128974
0.0958501
0.0999184
0.118425
0.1298
0.136999
0.166288
0.140613
0.0292656
0.0279793
0.0273285
0.0264476
0.0256843
0.0248038
0.0259645
0.0334632
0.0474752
0.0704832
0.0792545
0.106869
0.149199
0.196107
0.240331
0.261331
0.263837
0.26866
0.26123
0.245896
0.238473
0.244915
0.273767
0.262058
0.251341
0.0292703
0.0279702
0.0269109
0.0259455
0.0250942
0.0243657
0.0237467
0.0234146
0.024209
0.0263424
0.0316325
0.0447065
0.0605046
0.0707373
0.107912
0.142631
0.119008
0.15716
0.19447
0.189721
0.20705
0.227051
0.247391
0.259853
0.255438
0.0292698
0.0279666
0.0269209
0.0258996
0.0251367
0.0242649
0.0251189
0.0325527
0.0380355
0.0399
0.041659
0.0427473
0.0422672
0.0427511
0.0457263
0.0528433
0.0571455
0.0900553
0.144959
0.14372
0.143749
0.167757
0.178551
0.185559
0.190845
0.0292756
0.0279502
0.026947
0.0258508
0.0252027
0.0241435
0.0241924
0.0279016
0.0268644
0.0288197
0.0308587
0.0329289
0.0329353
0.0318381
0.0323402
0.0345249
0.0357304
0.0526898
0.0954504
0.0877358
0.100831
0.111789
0.123008
0.125089
0.128697
0.0292612
0.0279775
0.0269066
0.0259115
0.0250973
0.0242758
0.0237011
0.0231628
0.0226556
0.0222339
0.0221261
0.0221467
0.0220436
0.0218082
0.0216921
0.0218282
0.0224558
0.0242255
0.0262177
0.029922
0.0353572
0.0441043
0.0510235
0.0688879
0.0726797
0.0292408
0.0280083
0.0268644
0.0266231
0.0268403
0.0274239
0.0274827
0.0273568
0.0271925
0.0269344
0.0269631
0.0273931
0.0287703
0.0317964
0.0374407
0.0468153
0.0607221
0.0791206
0.100977
0.124992
0.149717
0.173902
0.195059
0.212475
0.223464
0.0292739
0.0279951
0.0272403
0.0269275
0.0278742
0.0306151
0.0328935
0.0346175
0.0376951
0.0407421
0.0434531
0.0486237
0.0616708
0.0870564
0.125464
0.179186
0.248705
0.326525
0.404409
0.476836
0.538385
0.585398
0.595234
0.648382
0.544822
0.0292933
0.0280392
0.0273243
0.0271412
0.0293262
0.0371925
0.0446645
0.0554703
0.0658
0.0661724
0.061121
0.0652532
0.0900487
0.136239
0.201577
0.283617
0.379465
0.47915
0.568429
0.637433
0.687462
0.725167
0.642914
0.467249
0.403436
0.0293112
0.028079
0.0274049
0.027331
0.0292739
0.0362658
0.0445383
0.0576548
0.071232
0.0767536
0.0767763
0.0736009
0.0706593
0.0704368
0.0733194
0.082016
0.0951019
0.109138
0.121898
0.132
0.138968
0.14533
0.11935
0.0920439
0.100581
0.0293467
0.0280474
0.0275199
0.0279382
0.0324817
0.0495576
0.0803352
0.148739
0.478105
0.705998
0.634218
0.434466
0.252765
0.153557
0.102407
0.0747967
0.0588472
0.0465841
0.036778
0.0307473
0.0279344
0.027331
0.0266033
0.0272015
0.0294622
0.0293643
0.0279665
0.0277982
0.0291306
0.0425678
0.112927
0.209059
2.22797
7.7804
2.76152
3.08516
2.41135
1.26055
0.504638
0.219613
0.119108
0.0788559
0.0589104
0.0457398
0.0353942
0.0278656
0.0247213
0.023793
0.0232428
0.0235924
0.0293291
0.02797
0.0276754
0.0289046
0.0403963
0.0971763
0.248705
3.30844
0.685222
0.740091
0.361399
0.206406
0.138498
0.110025
0.0939367
0.0752874
0.0484773
0.0295365
0.0248868
0.0237945
0.0238086
0.0292927
0.0279793
0.0273292
0.0275373
0.0299308
0.043955
0.230733
7.37434
0.46554
1.20168
0.99459
0.393898
0.220093
0.166253
0.136244
0.107746
0.0682765
0.0344556
0.0259414
0.0242622
0.0242439
0.0292877
0.0279658
0.02719
0.0267319
0.0271831
0.0334284
0.360493
1.15691
0.913983
1.3553
0.499018
0.292847
0.228832
0.179353
0.137491
0.0983784
0.0565296
0.0311949
0.0257303
0.0242266
0.024385
0.0292889
0.027959
0.0271344
0.0264518
0.0263258
0.0287183
0.0781776
2.21415
3.60923
3.88419
2.90243
2.07648
1.07964
0.478789
0.229851
0.167443
0.14235
0.12336
0.102009
0.0736532
0.0424702
0.028373
0.0256917
0.0250426
0.0254935
0.0292912
0.0279535
0.0271125
0.0263426
0.0260627
0.0275427
0.0448274
0.128333
0.286587
0.467159
0.552184
0.500553
0.355891
0.206234
0.121134
0.0937527
0.0812355
0.0711153
0.0612386
0.0498979
0.0394584
0.0340937
0.0316792
0.0306208
0.0303908
0.0292886
0.0279458
0.0270947
0.0262449
0.025773
0.0268627
0.043972
0.0939494
0.144657
0.226104
0.283659
0.265716
0.191425
0.119335
0.0834584
0.0736887
0.0725161
0.0707586
0.0672272
0.0660822
0.0615081
0.0540182
0.0446231
0.0379435
0.0366053
0.0292808
0.0279375
0.027068
0.0261344
0.0253411
0.0258594
0.0434773
0.0966236
0.100552
0.0995242
0.110283
0.110938
0.0952702
0.0830648
0.0768072
0.0742375
0.0729705
0.0679885
0.0641571
0.0727425
0.0805501
0.0675192
0.0490386
0.0401897
0.0390847
0.0292735
0.0279308
0.0270399
0.026059
0.0250923
0.0253587
0.0455542
0.109287
0.103709
0.0713498
0.0576589
0.0561445
0.0580486
0.0668454
0.073372
0.0738224
0.0669474
0.0563683
0.0515604
0.0569937
0.0661766
0.0621984
0.0522497
0.061058
0.0620031
0.0292722
0.0279186
0.0270159
0.0260192
0.0249531
0.0250432
0.0457639
0.11629
0.12357
0.0782168
0.048451
0.0427822
0.0541729
0.0883306
0.11376
0.112761
0.0929826
0.0729389
0.0639475
0.0683395
0.0829428
0.100492
0.141115
0.195189
0.169748
0.0292715
0.0279115
0.0269899
0.0258501
0.02488
0.0237768
0.0255201
0.03432
0.0505634
0.0724553
0.0737509
0.0711789
0.0692122
0.077028
0.103781
0.138086
0.16471
0.186416
0.210231
0.23515
0.257789
0.283743
0.305436
0.293796
0.28252
0.0292823
0.0278873
0.0266641
0.025554
0.0244537
0.0236006
0.0227447
0.0219059
0.0221837
0.0241557
0.0285686
0.0338442
0.040678
0.0478731
0.0540073
0.05994
0.0707085
0.0848375
0.101593
0.129068
0.151484
0.182856
0.210245
0.244523
0.248578
0.0292785
0.0278876
0.0266729
0.0254985
0.024499
0.0235256
0.0228675
0.0226011
0.0229322
0.0234397
0.0242965
0.0253801
0.0264543
0.028068
0.0301015
0.0351986
0.0396296
0.0494928
0.0572348
0.0744182
0.0848038
0.10409
0.11728
0.140688
0.151525
0.0292833
0.0278748
0.0266944
0.0254616
0.0245402
0.0234559
0.0228395
0.022102
0.0216722
0.0217197
0.0219889
0.0224953
0.022693
0.0229432
0.0230046
0.024035
0.0252385
0.0288523
0.0326744
0.043422
0.050585
0.0650083
0.0727905
0.0910052
0.0968383
0.0292709
0.0278958
0.0266668
0.0255014
0.0244857
0.0235195
0.0227018
0.0219974
0.0212919
0.0207094
0.0203276
0.0201058
0.0198797
0.0196108
0.0192824
0.0194013
0.0197855
0.0205318
0.0214858
0.0232515
0.0261111
0.0327804
0.0388466
0.0535613
0.0610013
0.0292588
0.0279567
0.0268833
0.0262398
0.0261055
0.0261308
0.026034
0.0257698
0.0253426
0.0251234
0.0252308
0.0259456
0.0279066
0.0320209
0.0394064
0.0511122
0.0676154
0.0883874
0.112216
0.137791
0.163759
0.189052
0.211316
0.229097
0.240172
0.0292741
0.0279774
0.0271809
0.0265104
0.0266612
0.0274024
0.0279231
0.0287346
0.0313477
0.0344424
0.0377047
0.0444687
0.0601925
0.0900112
0.135834
0.197885
0.273834
0.354344
0.43232
0.503157
0.562388
0.606412
0.615959
0.664677
0.56054
0.0292899
0.028013
0.0272452
0.0267358
0.0271923
0.0288022
0.030571
0.0398116
0.0503874
0.050857
0.0485895
0.0578024
0.0880153
0.140163
0.210896
0.296303
0.39263
0.489429
0.57534
0.642729
0.692221
0.728382
0.644544
0.468192
0.406895
0.0293008
0.0280496
0.0273128
0.0269185
0.0275293
0.0294698
0.0327116
0.0439044
0.0548504
0.0554966
0.0540683
0.0527903
0.0535926
0.0566659
0.061339
0.0705569
0.0842471
0.0993901
0.113473
0.124806
0.133198
0.140748
0.115833
0.0941085
0.100792
0.0293112
0.0280648
0.0273518
0.0272023
0.0286062
0.0323724
0.041178
0.0801501
0.257371
0.389037
0.351121
0.24892
0.158821
0.105833
0.0742371
0.0551302
0.0445605
0.0371597
0.0315123
0.0277085
0.0257262
0.0251217
0.0244674
0.0257896
0.0279983
0.0293169
0.0280417
0.0273777
0.0275878
0.0303826
0.0388314
0.0756056
1.9864
8.08792
6.15247
3.09937
1.36214
0.596644
0.287818
0.154628
0.0911225
0.0619199
0.0474761
0.0378694
0.030005
0.0245687
0.0222947
0.0215758
0.0213994
0.0214695
0.0293008
0.028002
0.0273281
0.027447
0.0295249
0.0377821
0.127197
5.37091
1.09941
0.603906
0.251139
0.140354
0.101605
0.0836179
0.0712467
0.0570689
0.0372922
0.0250857
0.0221391
0.0215787
0.0213339
0.0292865
0.0279705
0.0272104
0.026907
0.0277077
0.0346588
0.263658
14.6565
1.99301
0.806529
0.279831
0.169586
0.136968
0.112348
0.0920641
0.0730261
0.0469672
0.0274947
0.022551
0.0217793
0.0215269
0.029285
0.0279547
0.027123
0.0264851
0.0266175
0.0321488
0.35981
0.604518
2.18406
0.488332
0.244157
0.190412
0.154159
0.118904
0.0905049
0.0653999
0.0393885
0.0256193
0.0223151
0.0217027
0.0215591
0.0292885
0.0279474
0.0270834
0.0262825
0.0259777
0.028035
0.0725216
1.79124
2.85982
2.95987
2.26051
1.59807
0.642369
0.284329
0.17846
0.141272
0.115385
0.0930542
0.073338
0.0522334
0.0320579
0.0239794
0.0221639
0.0219354
0.021919
0.0292906
0.0279414
0.0270668
0.0261835
0.0256383
0.026601
0.0415088
0.10006
0.187893
0.303746
0.356187
0.297476
0.202257
0.126153
0.0907121
0.0757361
0.0637884
0.0527439
0.0426974
0.0336794
0.0277063
0.025068
0.023834
0.0237705
0.0237622
0.0292873
0.0279352
0.0270547
0.0261027
0.0253672
0.0259945
0.0423175
0.0866432
0.092493
0.0953488
0.103609
0.101931
0.084566
0.066642
0.057093
0.0523346
0.0476687
0.0420586
0.0370092
0.0342341
0.0324488
0.0303717
0.0277162
0.0264356
0.0266208
0.0292787
0.027931
0.0270352
0.0260238
0.0251243
0.0255321
0.044753
0.0964108
0.0897564
0.069704
0.0608959
0.0554236
0.0510342
0.0494447
0.0488419
0.0473963
0.0442696
0.0394517
0.0357106
0.0356773
0.0363795
0.033808
0.0296094
0.0298205
0.0307945
0.0292719
0.0279276
0.0270122
0.0259701
0.0249324
0.0253621
0.0486791
0.111399
0.100437
0.065266
0.0454853
0.0381522
0.0380018
0.0420961
0.0460606
0.0460819
0.0420697
0.0367291
0.0334179
0.0336282
0.0355556
0.0352206
0.038075
0.0593437
0.0619915
0.0292721
0.0279161
0.0269924
0.0259398
0.0248026
0.0251422
0.0494852
0.121645
0.122545
0.0763128
0.045535
0.0350554
0.0364438
0.045666
0.056116
0.0593495
0.0561563
0.0536408
0.0568058
0.0680128
0.0874154
0.112496
0.171443
0.224946
0.201885
0.0292727
0.0279091
0.0269688
0.0257802
0.0247651
0.0236312
0.0258188
0.0354961
0.0536048
0.0750409
0.0740055
0.064993
0.055033
0.0539849
0.0646412
0.0880143
0.115649
0.148038
0.18582
0.228135
0.271538
0.31653
0.330573
0.3328
0.310459
0.0292835
0.027887
0.0266403
0.0255158
0.0243324
0.0234661
0.0224898
0.0215514
0.0218689
0.0240231
0.0280053
0.0322388
0.0393189
0.0449114
0.049058
0.0533365
0.0608427
0.073427
0.087959
0.110511
0.135903
0.169893
0.201933
0.239251
0.251341
0.0292757
0.0278943
0.0266457
0.0254541
0.0243927
0.0233788
0.0224997
0.0218228
0.0210427
0.0207322
0.021048
0.0217247
0.0228019
0.0243378
0.0267092
0.0314436
0.0360217
0.0440019
0.0502154
0.0617158
0.0714192
0.087964
0.101302
0.121462
0.137673
0.0292765
0.02789
0.0266523
0.0254419
0.0243994
0.0233512
0.022513
0.0216932
0.0209335
0.0204172
0.0199836
0.0200163
0.0198873
0.0199827
0.0201881
0.020903
0.0220916
0.0246588
0.0277533
0.0353479
0.0412988
0.0533007
0.0609497
0.0772388
0.0858607
0.0292702
0.0278985
0.0266416
0.0254551
0.0243822
0.0233744
0.0224713
0.0216861
0.0209136
0.0202803
0.019752
0.0194337
0.0191989
0.0187799
0.0184072
0.0184898
0.0187886
0.0193721
0.0202601
0.0222865
0.0251194
0.0316735
0.0370944
0.051255
0.0588603
0.0292681
0.0279337
0.026867
0.0261218
0.0257471
0.0255584
0.0253313
0.0249046
0.0245184
0.0244964
0.0248571
0.0260497
0.0288224
0.0342216
0.0434183
0.0573143
0.0760275
0.0986519
0.123929
0.150591
0.177313
0.203303
0.225913
0.243652
0.254656
0.0292704
0.027966
0.0271463
0.0263873
0.0261397
0.0262611
0.0263135
0.0269964
0.0294405
0.0331587
0.0376075
0.0462621
0.06497
0.0994079
0.151587
0.220782
0.301593
0.383832
0.461279
0.530255
0.587057
0.629532
0.630539
0.67991
0.581415
0.0292838
0.0279922
0.0272042
0.026576
0.026455
0.0267664
0.0274288
0.0362409
0.0475204
0.0490292
0.0484637
0.0597523
0.0922206
0.148453
0.22509
0.316256
0.414257
0.508073
0.5898
0.654347
0.702125
0.736418
0.652061
0.475811
0.416499
0.0292918
0.0280208
0.0272574
0.0267047
0.0267232
0.0272891
0.0290957
0.0395019
0.0486838
0.0471929
0.0450352
0.0446905
0.0482102
0.0545157
0.0610015
0.0711234
0.0850077
0.0997585
0.113189
0.124224
0.133082
0.141082
0.116871
0.098025
0.105241
0.0292948
0.0280345
0.0272954
0.0268476
0.0271751
0.0283399
0.0322813
0.0544396
0.110502
0.157764
0.160528
0.130424
0.0998393
0.0786355
0.0615825
0.0494468
0.0416066
0.0357774
0.0312638
0.0281949
0.0265743
0.0259466
0.0256819
0.0279252
0.0301869
0.0292927
0.0280206
0.0273054
0.0270059
0.0276949
0.0298215
0.0434292
0.477128
2.55288
1.85918
1.11855
0.617859
0.322131
0.180504
0.110294
0.072577
0.0532882
0.0419526
0.0338433
0.0277893
0.0242601
0.0228382
0.0225761
0.0231652
0.0230785
0.0292864
0.0279866
0.0272481
0.0269104
0.0274997
0.030591
0.0752626
4.851
12.185
6.75556
3.38531
1.66769
0.750021
0.319946
0.164245
0.106077
0.0803556
0.0644669
0.05205
0.0398247
0.0290149
0.023986
0.0228578
0.0232638
0.0227706
0.02928
0.0279571
0.0271573
0.0266213
0.0269241
0.031369
0.14711
7.61263
12.8818
6.10506
3.02019
1.53394
0.74458
0.333629
0.182015
0.132768
0.103416
0.079102
0.0606259
0.0452994
0.0318036
0.0248028
0.0230281
0.0233438
0.0228658
0.0292806
0.0279436
0.0270912
0.026383
0.0263291
0.0301645
0.164101
9.30617
7.35911
3.7867
2.02172
1.07344
0.540899
0.280226
0.185627
0.144379
0.109984
0.0806567
0.0589798
0.0418048
0.0293104
0.0241269
0.0228865
0.0232702
0.0228432
0.0292851
0.0279372
0.0270618
0.0262244
0.0258142
0.0274088
0.0518063
0.479898
1.27389
1.29307
0.944372
0.547087
0.296859
0.180916
0.136486
0.112165
0.0887135
0.0680465
0.0510706
0.0363454
0.0268108
0.0234454
0.022748
0.0232785
0.022957
0.0292864
0.0279327
0.0270485
0.0261331
0.0254662
0.0261542
0.0389299
0.0857389
0.122978
0.169669
0.191258
0.157483
0.11491
0.0877124
0.0752155
0.0659418
0.0551762
0.044585
0.0353586
0.0285056