/*--------------------------------*- C++ -*----------------------------------*\
  =========                 |
  \\      /  F ield         | OpenFOAM: The Open Source CFD Toolbox
   \\    /   O peration     | Website:  https://openfoam.org
    \\  /    A nd           | Version:  6
     \\/     M anipulation  |
\*---------------------------------------------------------------------------*/
FoamFile
{
    version     2.0;
    format      ascii;
    class       volScalarField;
    location    "50";
    object      k;
}
// * * * * * * * * * * * * * * * * * * * * * * * * * * * * * * * * * * * * * //

dimensions      [0 2 -2 0 0 0 0];

internalField   nonuniform List<scalar> 
230684
(
1.42725
1.31485
1.20759
1.13603
1.04412
0.95375
0.890139
0.837691
0.813043
0.800279
0.790034
0.782252
0.771498
0.770173
0.774821
0.787712
0.811366
0.848609
0.901327
0.972426
1.07007
1.19175
1.32254
1.47715
1.59984
1.41988
1.3271
1.20157
1.03734
0.869568
0.806389
0.765774
1.14222
0.963808
0.843754
0.768118
0.738375
0.722295
0.771241
0.871842
1.02706
1.17102
1.35528
1.60311
1.87695
2.12212
2.33642
2.3684
3.77273
3.4179
1.42197
1.32186
1.2155
0.949356
0.799609
1.58594
1.16321
1.39732
1.24851
0.967
0.878983
0.904856
0.872878
0.826688
0.801583
0.918368
1.16163
1.49942
1.84669
2.05015
2.15457
2.16336
2.92134
3.22
2.89303
1.40827
1.30461
1.1082
0.865111
0.636891
1.68065
1.26419
1.48119
1.04904
1.24312
1.40572
2.15582
1.12726
0.836026
0.582588
0.827368
0.973885
1.05019
1.05877
1.02866
1.01005
1.01717
1.33663
1.60581
1.46723
1.42079
1.32434
1.19897
0.907316
0.704398
0.722159
0.822063
1.05903
1.21735
0.800065
1.17784
2.71944
1.25805
0.652691
0.564994
0.611227
1.13083
1.29157
1.1116
0.929001
0.841345
0.846748
1.10894
1.23725
1.15842
1.42162
1.32331
1.20114
0.859863
0.473419
0.88482
0.52706
0.531637
2.3444
2.24542
1.87029
2.41264
1.47891
0.781135
0.294482
0.43889
0.72583
0.708148
0.630795
0.574002
0.538398
0.56696
0.973245
1.25283
1.14052
1.42218
1.32299
1.20256
0.861133
1.07113
0.835852
0.341888
0.495619
0.494179
0.373413
0.288693
0.345039
0.368019
0.634794
0.484911
1.15052
1.69987
1.78956
1.52871
1.27197
1.095
1.00392
1.32106
1.41308
1.25318
1.42272
1.32223
1.21092
0.921273
0.666352
0.531287
0.362904
1.97174
1.45754
1.05059
0.742682
0.666776
1.12231
2.42016
3.33866
3.77324
3.49411
2.79902
2.06798
1.51985
1.2246
1.0749
1.21987
1.30672
1.19544
1.42278
1.32207
1.21503
0.943406
0.726166
0.57233
0.425048
2.12206
1.57162
1.1867
0.913055
0.735294
2.53162
3.41046
4.27012
4.31964
3.66396
2.71373
1.87334
1.35486
1.07854
0.941114
1.07235
1.29602
1.17082
1.42274
1.32205
1.21639
0.949879
0.737268
0.594417
0.488776
0.579648
1.91684
1.20703
0.864854
0.830795
1.43403
0.629831
1.45093
2.90952
3.6047
2.86842
1.9836
1.44467
1.15127
1.01758
1.31248
1.548
1.38187
1.42265
1.32243
1.21751
0.948118
0.685397
0.549883
0.365356
0.998517
0.839753
0.664688
0.629608
0.687233
0.66333
1.87037
1.16035
1.06284
1.05564
1.27595
1.47283
1.49562
1.42421
1.33534
1.65065
1.76652
1.5756
1.42291
1.3223
1.21961
0.96128
0.75347
0.60257
0.547453
0.476888
0.789575
0.706386
0.584768
0.589068
0.240645
0.393554
0.587302
0.395772
0.382209
0.626826
2.51951
1.88438
1.36906
1.07933
1.19055
1.40917
1.36182
1.42296
1.32236
1.22142
0.971751
0.77882
0.655633
0.589713
0.736088
0.684136
0.564452
0.518132
0.676074
0.697248
0.48744
0.734948
0.745847
0.11376
0.800678
1.97135
0.915598
0.547024
0.510007
0.803774
0.845247
1.01914
1.42293
1.32236
1.2224
0.977136
0.79059
0.673899
0.599088
0.546182
0.659755
0.787122
0.86255
1.13351
1.95559
1.19782
1.12177
0.448156
0.547723
0.726239
2.31421
1.81968
1.80078
0.80021
0.636992
0.542458
0.869095
1.42274
1.32239
1.22256
0.978666
0.793029
0.676014
0.598804
0.557151
0.775206
1.02781
1.09942
3.12655
1.74465
1.05459
0.744423
1.09923
1.30017
1.20162
1.00926
1.01937
1.04395
1.10285
1.18218
1.23909
1.23764
1.41491
1.33679
1.19671
1.03506
0.910919
0.815047
0.741771
0.686251
0.655832
0.668527
0.700861
2.48695
1.51976
1.01615
1.11804
1.13127
0.671689
1.36261
1.12038
1.22115
0.813831
0.664325
0.593843
1.24282
1.16504
1.42866
1.31204
1.20722
1.12878
1.04703
0.994898
0.915986
0.830839
0.79488
0.723507
0.630794
0.542783
1.61055
0.980294
0.648344
0.572452
0.684988
1.08199
1.26618
1.34797
0.821793
0.685566
1.04202
2.54514
2.30886
1.43395
1.30268
1.21666
1.11447
1.06567
0.95391
0.838241
0.773098
0.975339
1.0162
0.856036
0.640863
0.676877
0.914937
0.804654
0.818285
0.853281
0.757088
4.88184
3.643
1.55535
4.15293
3.56043
3.32336
2.86432
1.42905
1.31172
1.20649
1.12981
1.04741
0.997617
0.867456
0.910921
0.875862
0.832426
0.759829
1.12845
1.08766
1.09198
0.958365
0.905311
0.831675
0.815717
4.05004
4.07816
2.56903
2.90875
2.64484
2.51665
2.26889
1.43076
1.30852
1.21056
1.12475
1.05603
0.991642
0.940965
0.892573
0.855057
0.816492
0.787627
0.744947
0.705519
0.676286
0.66064
0.658335
0.648551
0.645895
0.918104
0.861952
0.863849
0.912448
0.953484
0.99265
1.02862
1.4751
1.42661
1.36564
1.33732
1.3267
1.29615
1.24173
1.24273
1.18205
1.13245
1.10148
1.06246
1.03975
1.05362
1.09404
1.15914
1.25352
1.38352
1.55632
1.78645
2.1506
2.57865
2.84294
3.37908
3.44806
1.47482
1.42759
1.37362
1.3124
1.61422
1.41048
0.977248
1.53402
1.29171
1.25196
1.28413
1.38147
1.58193
1.79767
2.05155
2.35388
2.76752
3.34502
4.03325
4.70141
5.23513
5.6178
5.62231
6.60627
6.00053
1.47469
1.4297
1.3699
1.268
2.67491
7.83642
6.98167
5.44804
4.70292
4.09168
3.19126
2.70299
2.88814
3.41734
4.16777
5.11828
5.98504
6.4865
6.66212
6.75007
6.48203
5.61201
5.11291
1.47776
1.42504
1.33769
1.3456
1.72828
3.18452
2.7176
2.72459
3.32009
7.91084
3.45982
2.93032
2.84822
2.937
2.98246
2.91443
2.87898
2.90238
2.75289
2.42903
2.34427
1.47583
1.42889
1.36537
1.25276
1.40632
2.07162
1.75838
2.99176
5.05507
5.22568
5.29537
6.66472
5.11235
3.43764
2.36814
1.88826
1.63033
1.52952
1.65119
1.73211
1.66547
1.53588
1.47605
1.42691
1.38167
1.33811
1.52795
5.12911
6.62436
6.47145
6.03435
6.80662
5.30633
4.2217
3.91737
3.01543
2.30752
1.78635
1.44808
1.44404
1.67846
1.6831
1.56869
1.47599
1.42541
1.38059
1.36946
2.51162
0.530561
2.7826
2.68896
3.1714
3.91506
4.30032
3.62879
2.8867
2.34308
1.98244
1.92538
1.89771
1.7378
1.64184
1.47463
1.42719
1.36744
1.26914
1.40525
1.21718
1.21584
1.16547
5.51859
4.7236
5.60021
6.75639
6.29487
4.95919
3.59143
2.53689
1.96999
1.82937
1.81744
1.68915
1.54834
1.47445
1.42771
1.36377
1.24892
1.14151
1.03556
1.06262
5.59425
6.08463
6.5091
6.49289
6.09862
4.87308
3.38892
2.28868
1.78059
1.71167
1.75169
1.71676
1.59154
1.47458
1.42796
1.36289
1.24728
1.13846
1.03138
0.999046
3.03673
5.21072
6.5186
6.56062
3.02236
3.77406
5.65815
7.90521
8.38507
5.21726
4.57218
3.77095
2.84189
2.22024
1.9842
2.0177
1.98995
1.81994
1.47475
1.4282
1.36412
1.25137
1.4711
1.93038
1.75084
1.52325
1.58494
2.25872
2.32345
2.42789
2.62622
3.05973
3.044
2.97085
2.76865
2.59864
2.45213
2.21551
2.03362
1.47473
1.4286
1.36467
1.25516
1.1745
1.20273
2.08418
1.39284
0.288968
0.850926
2.94368
4.25285
2.76257
2.32187
2.26674
1.9975
1.80752
1.68911
1.47468
1.4285
1.365
1.25637
1.16559
1.10899
1.04622
2.48941
1.53595
1.51057
2.5448
2.09411
1.16992
1.8606
3.91376
0.328527
1.05574
2.35373
1.79076
1.50504
1.31219
1.47442
1.42846
1.36466
1.25705
1.16663
1.09272
1.05646
1.61332
2.4884
2.54935
2.56328
3.94081
2.43902
1.64974
1.80586
1.6888
1.98721
2.08804
7.13007
3.29368
1.80841
1.6501
1.48922
1.47435
1.42795
1.36435
1.25698
1.16758
1.09247
1.06593
1.69363
2.70689
3.07076
3.21851
11.0288
4.99959
5.26254
4.22491
3.07722
2.44242
2.11575
2.04288
2.11488
1.98153
3.90436
2.44359
1.67241
1.47343
1.42829
1.36489
1.27966
1.19946
1.12677
1.05694
1.03975
1.17736
1.53887
2.27965
6.8886
5.99544
6.53464
3.23825
2.82206
1.78037
2.7262
2.28338
1.47782
1.42154
1.36552
1.3048
1.24945
1.18985
1.12627
1.07345
1.08956
0.994509
1.04821
2.9772
0.139075
1.02451
5.32818
4.38249
4.63802
3.97324
3.65133
3.89153
4.192
3.73408
1.4783
1.42158
1.36395
1.30617
1.24406
1.18567
1.1151
2.41529
2.06965
1.51911
1.22715
1.08006
1.94327
3.52045
2.44808
1.8736
2.28635
6.70873
9.43837
6.21747
5.36475
5.05524
4.34751
1.47806
1.42129
1.36548
1.30316
1.24974
1.18837
1.20545
2.47716
1.51101
1.08521
1.01527
1.54324
2.21872
1.29049
1.49865
1.7884
3.60555
7.96533
7.45637
4.03786
3.57189
3.39605
3.01132
1.47772
1.422
1.36487
1.30477
1.25016
1.19066
1.14764
1.09547
1.05274
1.00611
0.967571
0.925318
0.873626
0.855405
0.838181
0.813411
0.806324
1.00095
2.31878
1.78741
1.61889
1.53102
1.61689
1.71327
1.67583
1.47951
1.44646
1.40979
1.41876
1.4307
1.44904
1.43472
1.4642
1.41834
1.38371
1.35423
1.32492
1.32825
1.35248
1.40648
1.49328
1.63135
1.83025
2.08708
2.38858
2.72376
3.07301
3.41153
3.92442
4.20482
1.47984
1.44842
1.41552
1.4278
1.71819
1.81208
1.79377
1.83623
1.76116
1.70315
1.71083
1.80116
1.97196
2.22986
2.58752
3.08994
3.75917
4.57122
5.41565
6.18239
6.80623
7.27881
7.36976
8.05116
7.32114
1.48126
1.44861
1.42144
1.43185
2.99627
5.3318
4.23282
3.18837
2.82621
2.71868
2.73171
2.75914
2.76677
2.9572
3.59423
4.4831
5.51556
6.58608
7.47754
8.07834
8.39713
8.58329
8.00276
6.61825
6.09935
1.48269
1.44891
1.42642
1.41052
1.88914
4.69036
3.33074
2.52313
2.35436
2.49689
2.67927
3.74912
3.49834
3.1279
2.99184
2.93237
3.01854
3.24797
3.39758
3.43108
3.43177
3.44168
3.0913
2.6372
2.64778
1.48491
1.44434
1.43275
1.45328
1.94773
3.34136
4.77855
5.13652
6.97601
6.60163
5.77025
6.84509
6.12556
5.13019
3.98432
3.13727
2.52493
2.11438
1.88036
1.69315
1.57428
1.5913
1.63864
1.59392
1.58548
1.4835
1.44664
1.45561
1.61724
4.12762
8.15665
11.0506
11.2545
10.1432
8.75336
6.23757
4.50866
3.39495
2.69952
2.21489
1.88451
1.652
1.50811
1.52203
1.62603
1.60616
1.57231
1.48404
1.44183
1.45006
1.66519
9.36506
2.32351
4.60391
4.68436
4.26911
3.45563
2.92811
2.58422
2.31814
2.03004
1.82655
1.78904
1.76928
1.66783
1.61826
1.48214
1.44357
1.42683
1.45357
1.83362
1.975
1.97658
1.94332
4.37962
5.08458
6.02912
5.76808
4.68888
3.74326
2.89505
2.15028
1.7212
1.67662
1.70193
1.63932
1.57185
1.48131
1.44444
1.41679
1.38869
1.37588
1.42024
2.66416
1.84371
5.59329
7.54196
6.58944
4.96335
4.23632
3.67417
2.82197
2.01423
1.61403
1.6143
1.68263
1.63727
1.59183
1.48137
1.44446
1.41466
1.37755
1.34479
1.34018
1.79342
6.88394
6.44507
7.89046
7.80608
5.24194
5.52247
5.43427
3.61495
2.98069
3.01324
2.9684
2.75493
2.22556
1.83432
1.76578
1.79641
1.76183
1.71571
1.4814
1.44461
1.41422
1.3788
1.39422
1.50901
3.58407
3.06918
2.44823
2.29666
2.30349
2.41866
2.4428
2.24181
2.141
2.22783
2.45123
2.54376
2.52309
2.43372
2.22782
2.09317
2.04148
1.93865
1.88997
1.48138
1.4445
1.41398
1.37666
1.36584
1.40928
1.88538
2.29713
2.54817
2.00313
1.40026
1.46315
1.21456
1.08683
1.09537
1.05089
1.16053
1.7987
2.33697
2.38268
2.35346
2.21961
1.9682
1.79551
1.77025
1.48116
1.44415
1.41308
1.37191
1.33601
1.3372
1.54298
2.3917
2.87122
4.07187
2.0498
2.64675
5.59069
4.31157
3.28692
2.82027
2.01254
2.03104
5.3757
4.18859
3.05122
2.36148
1.78126
1.57704
1.46911
1.4809
1.44376
1.41206
1.36951
1.32589
1.29455
1.50117
2.4285
3.05905
2.9547
2.61591
2.50672
2.5943
2.48813
2.44627
2.37909
2.33781
2.27425
2.40205
2.57234
2.28205
1.88039
1.79519
1.82439
1.65315
1.48075
1.44329
1.41119
1.36837
1.32218
1.27983
1.49813
2.44812
3.26101
3.1532
2.88201
5.98645
6.67049
6.65283
5.07743
4.07193
3.23608
2.61754
2.2715
2.36221
2.44769
2.33734
2.4362
2.78224
2.43426
1.48047
1.44321
1.41019
1.36664
1.32198
1.27495
1.25014
1.33381
1.56154
2.08185
2.61908
5.0044
5.14465
4.29755
4.41222
5.68811
4.54233
3.58798
3.25463
2.95576
2.88984
3.03001
3.274
3.92026
3.62998
1.48218
1.44066
1.40394
1.35972
1.32362
1.27681
1.23867
1.21262
1.2417
1.23962
1.34934
2.45997
4.89466
5.74715
6.35054
6.0153
4.18646
3.82807
3.86765
3.76512
4.02979
3.97167
4.11762
4.1669
4.16929
1.48219
1.44085
1.4035
1.3589
1.32281
1.27757
1.27661
1.98012
1.93183
1.59053
1.46529
1.36845
1.49662
1.80923
2.24162
2.40547
2.48759
2.76863
4.83089
4.69411
4.2717
3.68956
3.60019
3.63444
3.64451
1.48223
1.44049
1.40423
1.35774
1.32418
1.27412
1.30303
2.87976
1.60946
1.29877
1.26669
1.21739
1.14958
1.1942
1.17708
1.22715
1.50183
2.17448
4.23682
3.5009
2.90499
2.91493
2.72629
2.76283
2.77159
1.48152
1.44181
1.40261
1.36047
1.32098
1.27911
1.24417
1.21121
1.17302
1.14272
1.11457
1.08887
1.06689
1.03292
1.01407
0.988068
0.987823
1.05315
1.29007
1.63679
1.72402
1.76442
1.93718
2.19658
2.19548
1.47975
1.44822
1.41829
1.42428
1.45954
1.491
1.49144
1.47712
1.4585
1.44183
1.42832
1.42629
1.44416
1.48835
1.56997
1.70498
1.90604
2.17432
2.49761
2.8571
3.23414
3.61613
3.9888
4.52222
4.82842
1.48021
1.45004
1.42483
1.43362
1.54362
1.72405
1.76853
1.77757
1.78499
1.79599
1.83755
1.94898
2.16537
2.50627
2.99301
3.64901
4.47815
5.40274
6.30169
7.10284
7.76587
8.27395
8.30695
8.8223
8.10564
1.48152
1.45081
1.42942
1.43872
1.69937
2.47939
2.51327
2.43798
2.44919
2.44524
2.36613
2.41233
2.70256
3.24554
4.04319
5.01766
6.10866
7.1925
8.09086
8.7302
9.13903
9.39762
8.7089
7.06805
6.56614
1.4832
1.45059
1.4344
1.43957
1.5947
2.24064
2.32144
2.37044
2.51173
2.57582
2.59574
2.69792
2.76446
2.78697
2.80394
2.84835
3.00159
3.22108
3.37631
3.45038
3.48512
3.51553
3.10328
2.6444
2.72234
1.48567
1.44654
1.44325
1.47572
1.81433
2.62357
2.7917
3.31924
6.04342
6.37988
5.87476
5.12077
4.53634
3.84965
3.21047
2.71569
2.33154
2.04284
1.81468
1.62613
1.51721
1.50165
1.49218
1.47542
1.50718
1.48482
1.4477
1.45563
1.58053
3.12371
4.52992
4.60322
9.30273
9.92447
10.7449
11.8891
11.2469
8.46924
5.52647
3.7481
2.95186
2.4953
2.11723
1.81735
1.59136
1.45995
1.43296
1.43967
1.41679
1.41345
1.48477
1.44409
1.45051
1.57845
3.22625
4.06094
3.61896
6.10359
4.22044
5.10859
4.05143
3.33537
2.80193
2.45525
2.15591
1.82875
1.62792
1.56048
1.50376
1.45029
1.43442
1.48251
1.44625
1.43512
1.46394
1.65567
2.00217
3.06367
3.31841
4.04045
5.6217
5.7115
4.39069
3.24797
2.63787
2.19984
1.78111
1.59613
1.5836
1.51443
1.45593
1.43096
1.48175
1.44668
1.42591
1.41399
1.42805
1.5772
3.97076
1.99567
5.13842
6.39238
4.58376
3.64644
3.28235
2.82532
2.25168
1.73155
1.53668
1.53062
1.50176
1.45275
1.43809
1.48175
1.44655
1.42372
1.40188
1.39409
1.44798
2.19945
9.00897
9.00711
10.7114
8.87579
5.28332
5.42882
4.48813
3.14894
3.0101
2.86344
2.61601
2.25023
1.83175
1.60815
1.5439
1.52006
1.49246
1.48779
1.48175
1.44655
1.42294
1.39969
1.3978
1.45087
2.03815
3.81243
4.6876
5.49568
5.46698
5.01904
4.001
2.95875
2.58618
2.65152
2.61529
2.4483
2.22513
1.99815
1.80929
1.70608
1.6621
1.62696
1.61636
1.48168
1.44637
1.4222
1.39666
1.38911
1.44131
1.92231
2.75763
3.35165
3.55281
4.22099
4.16181
3.89352
2.98981
2.50361
2.31697
2.31715
2.40484
2.39311
2.41312
2.26556
2.04041
1.82645
1.70099
1.66626
1.48145
1.44599
1.42093
1.392
1.3676
1.38643
1.76812
2.71022
3.03629
3.0255
2.96809
2.62219
2.36821
2.28273
2.30073
2.28804
2.25945
2.19275
2.08349
2.32292
2.29902
2.04518
1.80258
1.69179
1.62422
1.48124
1.44556
1.41974
1.38919
1.35747
1.35563
1.76011
2.85953
3.19119
2.73873
2.45245
2.46851
2.4649
2.55505
2.56214
2.54093
2.42612
2.21378
2.02993
2.1381
2.19277
2.14976
2.04942
2.07921
1.98049
1.48113
1.44509
1.41886
1.38776
1.35254
1.34307
1.74944
2.86258
3.39779
2.87628
2.30245
2.43188
3.24259
3.72782
3.74908
3.50455
2.95503
2.48856
2.22667
2.31822
2.58864
2.74776
3.02086
3.57227
3.21348
1.48099
1.44486
1.41817
1.38346
1.35008
1.31071
1.33339
1.47316
1.79352
2.35499
2.57898
2.87282
3.00142
3.10043
3.24896
3.37378
3.43786
3.54064
3.66834
3.85924
4.09815
4.41552
5.03368
4.92497
4.79094
1.48192
1.44318
1.41041
1.37426
1.34074
1.30982
1.27728
1.25733
1.26148
1.30652
1.42709
1.62037
1.89308
2.02215
2.31809
2.54717
2.50596
2.72518
3.08096
3.33443
3.64407
4.01006
4.36132
4.77907
4.79991
1.48198
1.44297
1.41073
1.37187
1.34342
1.30346
1.30684
1.39125
1.38847
1.35363
1.31969
1.29438
1.30145
1.34273
1.43023
1.62357
1.76956
2.17359
2.78457
2.89272
2.99835
3.2993
3.41099
3.7529
3.8513
1.48186
1.44306
1.41078
1.37151
1.3438
1.30179
1.28926
1.32027
1.28005
1.25911
1.23811
1.21705
1.18886
1.14479
1.13975
1.15619
1.20641
1.41892
2.04391
2.23466
2.28542
2.5591
2.65134
3.00443
3.06239
1.48123
1.44417
1.40941
1.37376
1.34061
1.3069
1.27639
1.25035
1.21966
1.1968
1.17407
1.15843
1.13821
1.12459
1.09194
1.08443
1.09443
1.12465
1.18629
1.27803
1.3915
1.67717
1.93537
2.38763
2.49177
1.47966
1.44863
1.4168
1.41764
1.42916
1.45571
1.46009
1.4529
1.44404
1.43706
1.43592
1.44868
1.48449
1.55431
1.67246
1.85329
2.10547
2.42526
2.79394
3.19287
3.60569
4.0228
4.42866
4.97709
5.29076
1.48077
1.44833
1.42693
1.42402
1.46399
1.55614
1.60322
1.63445
1.69306
1.75813
1.82987
1.96637
2.2326
2.66758
3.27224
4.04633
4.97005
5.9429
6.85498
7.66587
8.33808
8.83555
8.89867
9.34246
8.54964
1.48167
1.44961
1.43057
1.42931
1.5136
1.74074
1.86996
2.07398
2.26192
2.26954
2.20469
2.33418
2.75315
3.419
4.27825
5.27843
6.37971
7.4584
8.35836
9.02344
9.47389
9.77102
9.02921
7.2664
6.80456
1.48265
1.45061
1.43308
1.43583
1.50949
1.73355
1.92182
2.1871
2.43459
2.46124
2.39938
2.37754
2.40342
2.47179
2.55046
2.67037
2.86035
3.07826
3.24806
3.35642
3.42346
3.47555
3.06206
2.59112
2.76674
1.48484
1.44774
1.43823
1.45668
1.6191
1.98908
2.28246
3.04222
5.0946
5.62114
5.21999
4.3357
3.49831
2.98164
2.66089
2.38751
2.12981
1.89819
1.69868
1.54297
1.45384
1.4296
1.40065
1.40716
1.45198
1.48509
1.44583
1.44671
1.49831
1.89544
2.72992
3.43822
12.3156
15.1884
10.1188
11.5937
9.88
6.38928
3.88051
2.91843
2.60484
2.29283
1.9717
1.70608
1.5051
1.38846
1.34419
1.324
1.31201
1.31373
1.48412
1.44532
1.44299
1.491
1.79831
2.33641
3.56439
9.67995
2.81686
3.8758
2.91091
2.60102
2.34132
2.09489
1.87118
1.6584
1.54578
1.44839
1.36157
1.32876
1.32082
1.48209
1.44695
1.43143
1.44324
1.52883
1.86724
4.37686
4.72331
2.99338
5.25968
4.71741
3.40417
2.76473
2.2567
1.85985
1.59681
1.56064
1.52323
1.38443
1.33874
1.32729
1.4817
1.44663
1.4263
1.41525
1.43435
1.63532
4.99074
1.66724
4.88647
5.16694
3.52008
3.47606
3.16863
2.58014
2.01288
1.60878
1.51498
1.46613
1.37123
1.33439
1.32828
1.48167
1.44649
1.42444
1.40516
1.40451
1.48972
2.4529
9.96067
10.5819
11.3738
8.31794
4.59189
4.20411
3.2513
2.9608
2.96503
2.73212
2.35709
1.97221
1.67179
1.52757
1.42423
1.36308
1.34526
1.34774
1.48165
1.44648
1.4236
1.40148
1.39596
1.45002
1.95719
3.38272
4.46357
5.01484
5.02741
4.55589
3.68379
2.93471
2.76006
2.66162
2.42461
2.13825
1.87857
1.67933
1.55155
1.47596
1.43343
1.41749
1.41748
1.48153
1.44633
1.42275
1.39834
1.38663
1.43044
1.90672
2.87483
3.33036
3.445
3.28942
2.97719
2.60755
2.42575
2.36852
2.29517
2.23434
2.14036
1.99063
1.90097
1.8051
1.69128
1.57615
1.50739
1.49493
1.48133
1.446
1.42152
1.39477
1.37202
1.39627
1.8748
2.91868
3.07476
2.76956
2.52827
2.31345
2.19284
2.20854
2.21626
2.16052
2.11655
2.04146
1.92937
1.98111
2.00861
1.87015
1.67224
1.60138
1.59164
1.4812
1.44558
1.42035
1.3924
1.36344
1.37978
1.90421
3.08373
3.19628
2.57167
2.15457
2.05486
2.07626
2.21076
2.27508
2.24171
2.11948
1.94574
1.80658
1.85848
1.96159
1.93248
1.86127
2.10664
2.09202
1.48113
1.44515
1.41962
1.39107
1.35851
1.3713
1.89304
3.08956
3.4737
2.76608
2.09557
1.93635
2.15922
2.60969
2.81561
2.75382
2.50006
2.27864
2.18002
2.27784
2.5576
2.86289
3.48757
4.29461
3.89876
1.48103
1.44486
1.41924
1.38622
1.35601
1.32435
1.36995
1.54256
1.94138
2.49574
2.55699
2.50979
2.43731
2.49988
2.76674
3.10883
3.42553
3.74049
4.08546
4.48894
4.91501
5.39574
5.89958
5.77835
5.6728
1.48163
1.44358
1.41109
1.37736
1.34457
1.31813
1.28601
1.26
1.27108
1.32855
1.43672
1.55782
1.7756
1.93912
2.06846
2.22839
2.42195
2.64193
2.93323
3.32432
3.66669
4.20302
4.66112
5.21538
5.3485
1.48162
1.44353
1.41093
1.37573
1.3465
1.3134
1.29326
1.28077
1.26767
1.25523
1.25744
1.26679
1.28917
1.32708
1.4074
1.55281
1.74378
1.96702
2.21879
2.54325
2.75736
3.14588
3.37999
3.81363
4.05065
1.48141
1.44383
1.41073
1.37564
1.34629
1.31318
1.29003
1.26588
1.24839
1.22936
1.21894
1.20939
1.2007
1.18156
1.18249
1.20014
1.24353
1.32479
1.475
1.82052
2.04698
2.42696
2.6253
3.05442
3.21206
1.48103
1.44442
1.41009
1.37656
1.3451
1.31472
1.28642
1.26223
1.23497
1.21466
1.19626
1.18678
1.16934
1.1606
1.14027
1.14608
1.16212
1.20359
1.24478
1.3586
1.48053
1.80968
2.03536
2.53263
2.70442
1.48012
1.44738
1.41768
1.40781
1.41149
1.42351
1.42545
1.42162
1.41585
1.4152
1.42326
1.4493
1.50378
1.5999
1.75261
1.97427
2.26833
2.62445
3.02318
3.44708
3.88209
4.32292
4.75225
5.31045
5.62632
1.48109
1.4471
1.42712
1.41536
1.42807
1.46644
1.49473
1.52989
1.60517
1.69621
1.79781
1.96754
2.28684
2.80245
3.502
4.36571
5.34478
6.33474
7.23879
8.02988
8.68626
9.195
9.26905
9.65164
8.84637
1.48166
1.44845
1.42949
1.42093
1.44804
1.51857
1.61266
1.86534
2.11486
2.14438
2.11366
2.29261
2.78177
3.5291
4.44726
5.47874
6.58041
7.63089
8.50779
9.17047
9.63393
9.94274
9.18844
7.3859
6.95586
1.48211
1.44982
1.43167
1.42707
1.4604
1.54344
1.68952
2.02089
2.29864
2.26948
2.16156
2.13228
2.18448
2.2943
2.4054
2.55593
2.75916
2.97567
3.15373
3.28343
3.37469
3.44863
3.05032
2.61844
2.82266
1.48294
1.44973
1.43287
1.4372
1.50115
1.64744
1.90048
2.71451
3.98858
4.3286
4.00608
3.40863
2.89157
2.60179
2.41012
2.21376
2.0059
1.80826
1.6378
1.50947
1.4358
1.40872
1.38267
1.4119
1.46273
1.48334
1.44831
1.43618
1.45201
1.5675
1.82398
2.55769
12.2799
13.6644
14.5042
9.89758
6.31044
4.19141
3.10521
2.68035
2.4414
2.1463
1.85983
1.62774
1.45526
1.35685
1.31424
1.29611
1.30026
1.30242
1.4825
1.44764
1.43322
1.44686
1.53611
1.78272
3.33944
14.7337
3.18112
3.39852
2.80461
2.58326
2.28465
1.98835
1.75147
1.58121
1.47858
1.38359
1.31864
1.30747
1.30022
1.48169
1.44685
1.42827
1.42698
1.46869
1.72324
4.65043
7.53213
6.03649
4.19879
3.32551
3.16207
2.81736
2.3191
1.8804
1.5939
1.51464
1.43425
1.33329
1.31377
1.30529
1.48154
1.4463
1.42527
1.41117
1.42704
1.62186
4.96501
1.07874
6.25026
3.36833
3.436
3.54948
3.10808
2.47662
1.93421
1.58187
1.46532
1.39503
1.32384
1.31097
1.30585
1.48154
1.44623
1.42381
1.40369
1.40283
1.49239
2.48104
9.06276
9.782
9.82058
7.22405
3.81122
2.91836
2.84175
3.04605
3.05935
2.69932
2.24648
1.86152
1.59963
1.45125
1.36083
1.314
1.31118
1.31195
1.48149
1.44625
1.42302
1.39984
1.39078
1.43817
1.92425
3.23052
4.01819
4.36648
4.29782
3.75542
3.07804
2.72316
2.68035
2.54218
2.26719
1.96252
1.70475
1.52269
1.4217
1.36691
1.33838
1.34539
1.34706
1.48136
1.44615
1.42218
1.397
1.38111
1.41572
1.89403
2.88777
3.05934
2.88238
2.69261
2.48703
2.32437
2.27659
2.24527
2.15857
2.02355
1.85067
1.67579
1.56697
1.50745
1.45505
1.40614
1.39952
1.40659
1.4812
1.44588
1.42105
1.39433
1.37109
1.39707
1.91972
3.00461
3.0339
2.55632
2.20787
2.01553
1.97306
2.00663
2.03028
1.98503
1.90242
1.78097
1.64937
1.61236
1.60215
1.54729
1.46793
1.50312
1.53869
1.48115
1.44548
1.42001
1.3925
1.36417
1.39284
1.98494
3.20015
3.2153
2.51306
2.00893
1.80798
1.80818
1.91289
1.99842
1.97775
1.88156
1.74875
1.63334
1.61746
1.65288
1.65662
1.73208
2.19254
2.19746
1.48111
1.44509
1.41944
1.39132
1.35943
1.3886
1.98205
3.23112
3.53641
2.75317
2.04425
1.76822
1.81159
2.04909
2.24946
2.28831
2.22121
2.17171
2.2123
2.39831
2.73679
3.15758
4.04038
4.95151
4.52954
1.48101
1.44483
1.41932
1.38633
1.35643
1.32989
1.3892
1.58882
2.04929
2.59558
2.60286
2.42126
2.22826
2.24305
2.49403
2.89293
3.34219
3.80879
4.30917
4.86465
5.46512
6.10989
6.58372
6.45301
6.36569
1.48141
1.44382
1.41116
1.37772
1.34511
1.32044
1.28584
1.26371
1.28153
1.34818
1.45259
1.5756
1.78278
1.94146
2.06796
2.22378
2.44787
2.73065
3.01466
3.4313
3.86261
4.51085
5.01197
5.60412
5.80053
1.48132
1.44401
1.4104
1.37699
1.34638
1.31628
1.2905
1.26908
1.24613
1.2331
1.23967
1.25821
1.2901
1.33822
1.43143
1.58731
1.7842
2.01624
2.22028
2.52603
2.77302
3.17135
3.45554
3.90423
4.24652
1.48112
1.44428
1.41022
1.37684
1.34621
1.31597
1.29037
1.26433
1.24245
1.2234
1.21067
1.20378
1.19636
1.19667
1.20711
1.23522
1.28644
1.36419
1.50419
1.80705
2.05376
2.43631
2.67725
3.12644
3.35278
1.48093
1.44452
1.40999
1.37709
1.34588
1.31644
1.28909
1.26489
1.2395
1.22081
1.20369
1.19629
1.177
1.17549
1.166
1.18103
1.20069
1.24814
1.30385
1.46639
1.61657
1.96255
2.19414
2.69414
2.90843
1.48075
1.44574
1.41857
1.40132
1.39914
1.40116
1.40034
1.39636
1.39376
1.40024
1.41959
1.46156
1.53764
1.66173
1.8477
2.10441
2.43045
2.81092
3.228
3.66599
4.11167
4.5626
5.00072
5.56463
5.8707
1.48109
1.44656
1.4258
1.40855
1.41047
1.4247
1.43838
1.47214
1.55869
1.68116
1.82446
2.04482
2.42493
3.00795
3.7785
4.70579
5.715
6.69908
7.58193
8.34494
8.97902
9.47709
9.56425
9.91592
9.09955
1.48149
1.44763
1.42792
1.41434
1.42095
1.44415
1.5046
1.77464
2.07288
2.14625
2.16054
2.3792
2.91175
3.71028
4.6818
5.75294
6.85302
7.8596
8.69099
9.32722
9.78055
10.0889
9.33916
7.54552
7.112
1.48178
1.44871
1.42987
1.41948
1.43142
1.46453
1.56949
1.91119
2.19289
2.14875
2.06599
2.06449
2.15408
2.30315
2.4384
2.60003
2.80338
3.00764
3.1752
3.30313
3.40297
3.48694
3.11216
2.76587
2.92184
1.482
1.44916
1.43102
1.42529
1.44899
1.50675
1.6854
2.37263
3.0875
3.24837
3.09726
2.83508
2.64641
2.51962
2.36768
2.18663
1.99737
1.81675
1.66154
1.54748
1.4825
1.45522
1.44196
1.49293
1.54772
1.48204
1.44851
1.43132
1.43068
1.4694
1.56507
2.05608
5.50472
8.68434
7.36415
6.12054
4.77405
3.68891
3.11051
2.78102
2.45987
2.13697
1.85383
1.62896
1.47034
1.38635
1.35052
1.34518
1.37244
1.37203
1.48173
1.44737
1.42952
1.42756
1.46242
1.59493
2.67856
16.8736
19.7163
16.6982
11.7466
7.89157
5.09132
3.58193
3.17504
2.84815
2.44518
2.07239
1.77632
1.56407
1.44649
1.38336
1.35704
1.37501
1.3636
1.48143
1.44632
1.42644
1.41749
1.44067
1.61876
3.50226
18.3884
22.2754
16.7361
11.4045
7.65568
5.07904
3.72143
3.61203
3.35662
2.84896
2.29838
1.85865
1.57986
1.46668
1.40589
1.36458
1.37907
1.36731
1.48137
1.44589
1.42418
1.40745
1.41715
1.57001
3.55446
17.9151
16.0632
12.1305
8.63741
5.97711
4.16444
3.71146
3.82
3.57507
2.98754
2.35495
1.86439
1.5606
1.44036
1.38838
1.35924
1.37639
1.3667
1.48138
1.44589
1.42303
1.40167
1.39796
1.47262
2.27702
5.40664
7.23314
7.04468
5.73827
4.17398
3.21737
3.20515
3.32573
3.11867
2.66915
2.19268
1.81259
1.55562
1.42778
1.37082
1.35282
1.37571
1.36908
1.4813
1.44598
1.42233
1.39815
1.38593
1.42402
1.86695
3.00705
3.49771
3.60563
3.40303
3.007
2.6953
2.6661
2.65033
2.50376
2.22774
1.92533
1.66984
1.49613
1.4089
1.36791
1.35943
1.39003
1.38691
1.4812
1.44596
1.42158
1.39572
1.37688
1.40514
1.87656
2.83365
2.92609
2.61197
2.37623
2.22908
2.18372
2.19826
2.19522
2.12156
1.97067
1.78189
1.60735
1.4924
1.43454
1.39883
1.38717
1.41879
1.42895
1.48111
1.44573
1.42054
1.39364
1.36943
1.39728
1.94753
3.04137
3.03622
2.4827
2.08816
1.91172
1.89585
1.94435
1.98672
1.94871
1.85302
1.71969
1.58792
1.50801
1.47198
1.43918
1.42977
1.53264
1.57724
1.48112
1.44535
1.41965
1.39223
1.36384
1.40282
2.04727
3.29606
3.27467
2.56596
2.01558
1.78291
1.77216
1.84695
1.92277
1.90697
1.83137
1.72203
1.62282
1.57766
1.5806
1.59878
1.77169
2.38576
2.39213
1.48111
1.44502
1.41924
1.39121
1.35951
1.40532
2.06342
3.37516
3.62187
2.81017
2.10186
1.79267
1.77868
1.8966
2.04347
2.12814
2.15682
2.20802
2.35202
2.63281
3.05107
3.56189
4.61601
5.56694
5.13571
1.48098
1.44482
1.41933
1.38618
1.35566
1.33439
1.40701
1.64576
2.20551
2.73143
2.7219
2.47121
2.24932
2.23511
2.45497
2.86276
3.35981
3.90643
4.51668
5.20254
5.94263
6.70581
7.1773
7.0317
6.95083
1.48123
1.44399
1.41139
1.37717
1.34574
1.32074
1.28303
1.26918
1.29817
1.38008
1.49204
1.63822
1.86112
2.02719
2.15416
2.3208
2.56196
2.8495
3.15527
3.62257
4.14777
4.81241
5.34808
5.9458
6.19093
1.48114
1.44427
1.41016
1.37737
1.34624
1.31655
1.28946
1.2664
1.24052
1.2319
1.24107
1.26593
1.30619
1.36728
1.48221
1.66231
1.86875
2.10788
2.32056
2.62416
2.90169
3.29011
3.59834
4.07552
4.45884
1.48099
1.44446
1.41003
1.37714
1.3461
1.31653
1.2899
1.26377
1.24137
1.22336
1.20718
1.19981
1.19995
1.2067
1.22557
1.26368
1.32375
1.42227
1.60182
1.90056
2.16046
2.53652
2.79512
3.25256
3.51587
1.48088
1.44455
1.40994
1.3772
1.34598
1.31668
1.28974
1.26471
1.24083
1.22211
1.20692
1.19826
1.18394
1.1742
1.17608
1.19497
1.22102
1.27679
1.36136
1.56004
1.75036
2.11505
2.36906
2.87578
3.11357
1.48099
1.44506
1.41816
1.39865
1.39067
1.38868
1.38405
1.3796
1.38443
1.40269
1.43923
1.50241
1.60353
1.75595
1.97125
2.25502
2.60166
2.99672
3.42364
3.86771
4.31425
4.76145
5.19134
5.74213
6.0286
1.48102
1.44615
1.42489
1.40577
1.40008
1.40335
1.41031
1.45427
1.56641
1.75523
1.97388
2.2683
2.7145
3.35545
4.17909
5.14217
6.15862
7.12124
7.97894
8.71849
9.32134
9.79628
9.92633
10.2597
9.33151
1.48131
1.447
1.42669
1.4104
1.40695
1.41265
1.46509
1.78943
2.1946
2.37507
2.47496
2.75915
3.33294
4.16256
5.16497
6.25598
7.33343
8.27988
9.04915
9.63972
10.0633
10.3556
9.59886
7.79917
7.31815
1.48153
1.4478
1.42826
1.41407
1.41434
1.42708
1.51865
1.89043
2.23219
2.29915
2.30199
2.33492
2.46367
2.62845
2.77024
2.92448
3.10325
3.26907
3.39934
3.50055
3.58449
3.66077
3.29632
2.95831
3.10082
1.48161
1.44809
1.42922
1.4175
1.42435
1.45151
1.58572
2.11002
2.65275
2.82351
2.87728
2.86745
2.84175
2.75617
2.58686
2.38199
2.17433
1.98018
1.81682
1.70062
1.63387
1.60095
1.59297
1.65112
1.69717
1.48152
1.44759
1.42922
1.42031
1.43474
1.48764
1.78199
3.20017
5.06293
5.16021
4.67497
4.1114
3.72174
3.40264
3.02937
2.64494
2.29082
1.98679
1.75041
1.59479
1.51719
1.48226
1.4859
1.52303
1.50291
1.48133
1.44654
1.42747
1.41813
1.43495
1.52506
2.18224
6.25109
9.95751
9.33348
7.74842
5.83303
4.51408
3.97253
3.56774
3.08356
2.5924
2.1682
1.84451
1.63267
1.53575
1.49417
1.49155
1.52404
1.49022
1.4812
1.4457
1.42501
1.41131
1.42474
1.54809
2.58546
9.956
11.9676
10.9407
8.84936
6.39028
4.70721
4.22839
3.98411
3.48642
2.8558
2.28882
1.87761
1.6349
1.54187
1.50328
1.49568
1.52647
1.49208
1.48118
1.44546
1.42323
1.40481
1.40852
1.51442
2.51255
7.62292
9.55757
8.64944
6.9527
5.2416
4.24642
4.19581
4.03969
3.5606
2.90465
2.3052
1.87364
1.62431
1.53158
1.49576
1.49209
1.52405
1.4911
1.48119
1.44555
1.42231
1.39991
1.39302
1.44881
2.00347
3.72411
4.81781
4.97884
4.4243
3.755
3.53762
3.58492
3.50978
3.18454
2.69328
2.21599
1.84984
1.62305
1.5261
1.4865
1.4871
1.52193
1.49131
1.48114
1.44576
1.42172
1.39683
1.38191
1.41216
1.82011
2.78841
3.16471
3.1735
3.02385
2.86004
2.83114
2.8689
2.82852
2.64318
2.34367
2.02787
1.76849
1.60183
1.52133
1.4838
1.48805
1.52762
1.50115
1.48108
1.44578
1.42104
1.39476
1.37409
1.39896
1.87539
2.83131
2.95982
2.66649
2.4404
2.36474
2.36731
2.41437
2.40007
2.29569
2.11479
1.90716
1.72445
1.60125