/*--------------------------------*- C++ -*----------------------------------*\
  =========                 |
  \\      /  F ield         | OpenFOAM: The Open Source CFD Toolbox
   \\    /   O peration     | Website:  https://openfoam.org
    \\  /    A nd           | Version:  6
     \\/     M anipulation  |
\*---------------------------------------------------------------------------*/
FoamFile
{
    version     2.0;
    format      ascii;
    class       volScalarField;
    location    "50";
    object      nut;
}
// * * * * * * * * * * * * * * * * * * * * * * * * * * * * * * * * * * * * * //

dimensions      [0 2 -1 0 0 0 0];

internalField   nonuniform List<scalar> 
230684
(
0.940649
0.903604
0.866957
0.842411
0.403003
0.383429
0.3704
0.723045
0.710915
0.703313
0.697652
0.693586
0.688049
0.686071
0.685495
0.686967
0.692061
0.701755
0.715201
0.730787
0.75324
0.789989
0.822795
0.866483
0.902265
0.938163
0.907588
0.432353
0.40361
0.18232
0.165297
0.0776633
0.422152
0.390752
0.363096
0.345094
0.33722
0.326562
0.329932
0.341015
0.376681
0.40347
0.429136
0.463737
0.502311
0.534559
0.575099
0.574906
1.48069
1.3913
0.938224
0.905302
0.434031
0.191604
0.16526
0.156614
0.136255
0.227784
0.218455
0.193348
0.183098
0.182804
0.174767
0.176065
0.172471
0.18285
0.202783
0.227617
0.253985
0.269534
0.281213
0.281747
0.659862
1.34949
1.32746
0.896786
0.459963
0.208609
0.172721
0.151777
0.158905
0.111953
0.237654
0.196782
0.204222
0.212399
0.108373
0.0842779
0.0731581
0.0460706
0.17801
0.196822
0.206913
0.207491
0.203632
0.199467
0.197588
0.451072
0.97784
0.930304
0.938066
0.906022
0.429355
0.184361
0.156267
0.158849
0.173881
0.199629
0.219937
0.177771
0.17673
0.110995
0.0907195
0.0583542
0.0499091
0.152325
0.214324
0.23415
0.216635
0.195054
0.180643
0.177759
0.396591
0.800382
0.81664
0.938929
0.90697
0.43254
0.179938
0.0617038
0.121408
0.0931662
0.089036
0.295949
0.27996
0.259996
0.276353
0.186643
0.145852
0.0308236
0.128291
0.167992
0.166397
0.156291
0.147828
0.141678
0.139759
0.366059
0.875237
0.788151
0.939019
0.90663
0.433042
0.179471
0.112415
0.117758
0.0732098
0.0785608
0.09257
0.0794964
0.0704076
0.0679189
0.0616698
0.180686
0.133333
0.198877
0.259371
0.2748
0.253605
0.229822
0.208308
0.198174
0.453956
0.935974
0.85334
0.938665
0.905479
0.433624
0.188723
0.158546
0.137649
0.114869
0.164388
0.157155
0.1337
0.105771
0.104528
0.098451
0.290824
0.344298
0.374499
0.370428
0.340241
0.298545
0.253422
0.222656
0.206171
0.438001
0.869515
0.852909
0.938254
0.904503
0.433681
0.191008
0.167384
0.148426
0.127736
0.185955
0.159458
0.138848
0.122243
0.10867
0.296161
0.35894
0.402869
0.406529
0.383523
0.337902
0.287705
0.240623
0.210774
0.193785
0.406127
0.879483
0.836811
0.937981
0.904024
0.433523
0.191337
0.167445
0.149725
0.135168
0.0686855
0.252993
0.196038
0.157676
0.101412
0.216706
0.138657
0.231408
0.323377
0.375685
0.351247
0.29229
0.245489
0.213244
0.197475
0.448669
0.938995
0.913475
0.937819
0.904055
0.433627
0.190874
0.148636
0.0446708
0.0463072
0.118742
0.108238
0.0985034
0.0912375
0.0832815
0.065569
0.280197
0.212182
0.195526
0.195772
0.21286
0.233495
0.238175
0.231543
0.223696
0.497787
1.06645
0.961751
0.937831
0.904066
0.43406
0.192426
0.167312
0.143947
0.0707581
0.12559
0.091467
0.0963301
0.0907506
0.0903639
0.0710402
0.0682376
0.09792
0.0768465
0.0614929
0.141808
0.145701
0.135465
0.225736
0.206422
0.429026
0.934648
0.923486
0.937772
0.904115
0.434418
0.193728
0.173348
0.157771
0.14807
0.161182
0.0948211
0.088064
0.0716882
0.0637182
0.175295
0.0610726
0.0595269
0.0822798
0.0213074
0.160839
0.139745
0.0875843
0.0618776
0.132778
0.339374
0.363582
0.797322
0.937719
0.903944
0.434638
0.194302
0.174833
0.161484
0.152012
0.142187
0.147731
0.160986
0.166002
0.178933
0.246704
0.177298
0.161429
0.0452802
0.147162
0.152666
0.120381
0.227355
0.126652
0.0888918
0.0680156
0.136565
0.750481
0.937543
0.903952
0.434585
0.194429
0.175046
0.161884
0.152496
0.14031
0.155877
0.185903
0.194609
0.266961
0.103835
0.0790425
0.133537
0.197863
0.231336
0.243537
0.19986
0.194341
0.173961
0.0855423
0.0866857
0.211042
0.866481
0.934735
0.909139
0.429653
0.399809
0.374941
0.354676
0.338715
0.323894
0.315531
0.310783
0.15364
0.0939525
0.0963624
0.0650349
0.154344
0.144854
0.107272
0.466001
0.195759
0.112551
0.0911426
0.081168
0.133645
0.849323
0.823812
0.939262
0.900081
0.863471
0.834688
0.803696
0.783442
0.375883
0.360733
0.70287
0.335749
0.151845
0.117662
0.0992109
0.0715249
0.053909
0.0987401
0.102667
0.186733
0.0953756
0.20835
0.0831965
0.145519
0.376746
1.13357
1.19542
0.940869
0.896731
0.866554
0.829151
0.810828
0.382911
0.177969
0.160256
0.383488
0.788437
0.363425
0.149662
0.147073
0.148696
0.145733
0.12401
0.164522
0.155555
0.230993
0.338282
0.104292
1.51886
1.41352
1.34478
1.28095
0.939247
0.899677
0.862871
0.834697
0.803664
0.783274
0.348462
0.168971
0.363449
0.716678
0.347154
0.203972
0.118588
0.385664
0.360585
0.358315
0.338137
0.169643
0.215845
0.366969
0.609902
1.27815
1.21183
1.16113
1.1329
0.939777
0.89854
0.864227
0.832913
0.806724
0.782033
0.761176
0.742447
0.726522
0.715196
0.706756
0.341993
0.333969
0.656206
0.633033
0.636717
0.314545
0.150887
0.177212
0.341813
0.657357
0.67376
0.688833
0.706215
0.721346
5.29698
4.43238
3.75692
3.28426
2.60432
2.20351
2.03968
1.88988
1.89112
1.9084
1.96267
1.97059
2.00689
2.16491
2.39035
2.65092
2.93143
3.21867
3.51291
3.86593
4.61292
5.5334
5.80581
7.1623
6.81006
5.26963
4.49953
3.09142
2.67112
1.85623
0.417398
0.149494
0.339537
0.43974
0.590686
0.761297
1.0081
1.49487
2.18854
3.02539
3.68032
4.32635
5.08192
5.75949
6.24936
6.52438
6.58147
6.50563
7.42478
6.7866
5.22382
4.41177
3.09839
1.98768
1.5118
1.5093
1.71863
1.7507
1.8936
1.95597
1.71731
1.76172
2.55657
3.65529
4.64721
5.53972
6.16799
6.5338
6.53052
6.53306
6.56672
6.40107
6.08269
5.20561
3.79819
2.89984
1.41574
0.940926
0.632871
0.80268
1.07667
1.65039
0.833376
0.919052
1.55316
2.09126
2.72918
3.42319
3.84178
4.04237
4.03194
4.03382
3.97359
3.78817
5.1766
4.29606
2.9103
1.75448
1.48418
0.696228
0.597307
0.822989
1.40322
1.892
2.5771
0.960392
1.29915
1.36892
1.4579
1.80334
2.20075
2.49626
2.54819
2.57267
2.86616
2.59171
5.1663
4.26836
2.80671
1.78346
0.467366
1.14839
1.97959
2.67503
1.42477
0.989857
0.962862
1.11777
1.43426
1.40057
1.39646
1.45048
1.52816
1.96759
2.56299
2.78338
2.6502
5.19074
4.31181
2.84892
1.8201
0.610002
0.10934
0.402274
0.799869
1.0945
1.40048
1.57858
1.59173
1.64701
1.76447
1.94807
2.47258
2.77516
2.73049
2.85089
5.22251
4.35306
3.24909
1.94727
1.17243
0.596991
0.445598
0.128368
1.78922
2.67078
2.66812
3.01163
3.26048
3.1659
2.80259
2.48461
2.60071
2.87157
2.99028
2.92423
2.69584
5.25032
4.47818
3.33054
2.0662
1.69971
1.39479
1.05736
3.08761
3.22094
3.14292
3.24953
3.64003
3.47556
2.98612
2.59308
2.70247
2.79337
2.89906
2.8779
2.86988
5.26684
4.52748
3.28048
2.1132
1.76845
1.47097
1.10952
1.06646
0.785738
1.2989
1.41458
0.269249
0.804308
1.62852
2.21215
2.21247
2.7206
3.21937
3.07424
2.74737
2.61329
2.70406
2.86887
3.04303
2.89805
5.28086
4.55625
3.30223
2.13605
1.63273
0.301771
0.477184
0.191416
0.419675
0.95062
1.14081
1.25757
1.57857
2.37046
2.65103
2.75387
2.76976
2.83085
2.80909
2.6116
2.62231
5.29702
4.58396
3.36166
2.18815
1.84967
0.927782
0.370859
0.327433
0.0728296
0.167721
0.60082
0.847426
0.697577
0.958329
1.3526
1.41133
1.55215
1.77968
5.31954
4.57842
3.48465
2.23566
1.98123
1.8155
1.20417
1.12876
0.254877
0.420362
0.424581
0.266532
0.257569
0.341748
1.10287
0.0442478
0.220083
0.595331
0.812894
0.915458
1.20377
5.32369
4.65131
3.41715
2.27131
2.05048
1.9619
1.97624
3.24745
3.67433
2.92331
2.39178
1.42175
0.244743
0.355997
0.308359
0.157158
0.568445
0.865669
0.959106
0.972742
0.418734
0.664778
0.933188
5.34038
4.60644
3.51604
2.2881
2.08372
2.02176
2.14772
3.59384
4.33985
4.17935
3.70226
2.69669
0.720695
0.993295
1.40845
1.45857
1.37817
1.13633
0.756351
0.506819
0.314638
0.76553
0.737742
1.28222
5.33776
4.54693
3.44154
2.79972
2.5309
2.38643
2.25382
2.28358
2.61244
3.48211
3.69676
0.336776
0.96731
1.33551
0.957321
1.2057
0.312658
1.83998
1.94583
5.341
4.5131
4.0291
3.6212
3.34413
3.14347
2.5277
2.12404
1.78951
1.69843
1.79546
1.81561
0.054653
0.0736543
1.33836
0.579273
1.12839
1.29787
1.55331
2.02752
2.61262
2.82717
5.33605
4.516
4.01472
3.62667
3.35334
2.61076
2.08505
0.668841
0.640325
0.684432
0.686818
0.84487
0.915624
0.243695
0.338586
0.305794
0.717592
1.17468
1.20033
2.05667
2.19564
2.36823
2.56091
5.34062
4.51236
4.03038
3.61351
3.3403
3.09139
2.58812
0.30596
0.466888
0.743386
0.728361
0.684327
0.526295
0.684675
0.871128
1.19345
1.10768
1.19943
1.46971
1.44606
1.56079
1.67595
1.87773
5.33785
4.52381
4.02867
3.64196
3.37419
3.11027
2.89633
2.65021
2.50503
2.29078
2.13369
1.64035
1.43001
1.67645
1.57819
1.41961
1.16961
0.883534
0.345709
0.699984
1.29555
1.20352
1.54699
1.83169
1.86098
6.6693
6.39666
5.96587
5.73878
5.18571
4.7229
4.44615
4.31285
4.19188
4.23073
4.18204
4.14037
4.27568
4.37643
4.5372
4.68793
4.85817
5.05653
5.30417
5.62035
6.02718
6.50897
7.06159
8.40366
9.02224
6.67008
6.39768
5.85376
5.62194
3.64147
2.39651
1.86178
2.00818
2.2397
2.41129
2.68384
3.24757
3.80049
4.48235
5.18363
5.94546
6.75174
7.57327
8.31755
8.91876
9.34542
9.60064
9.53596
9.86444
9.697
6.66719
6.36996
5.83503
5.20708
4.00445
1.31121
1.36942
1.57004
2.0048
2.31356
2.5038
2.71409
3.31664
4.37971
5.60122
6.52332
7.42187
8.32707
9.00753
9.41765
9.55797
9.60746
9.3026
8.53573
8.52163
6.67211
6.37501
5.93941
5.07835
3.7754
1.26273
1.066
1.45856
1.78819
2.26636
2.71808
2.27835
2.24517
2.64785
3.39975
3.87743
4.37833
5.20122
5.9109
6.1545
6.16984
6.09833
5.78128
5.50506
5.50295
6.68089
6.27915
5.72233
4.98249
2.92634
0.945576
0.966573
1.41674
2.66391
3.14022
3.41978
3.10393
2.40305
2.36556
2.5941
2.7489
2.73858
2.89375
3.54834
4.14768
4.23665
4.11487
3.99239
4.23169
4.12815
6.66797
6.26133
5.70683
4.85646
2.40023
2.15533
3.74175
4.29392
4.39461
3.94367
3.32591
2.98147
2.86162
2.77091
2.77375
2.99384
3.25106
3.44678
3.8246
4.06753
4.18801
4.2025
6.68441
6.26314
5.77211
5.15316
1.7816
0.28663
1.40583
2.23259
2.53427
2.73269
2.99667
3.12918
3.08539
2.95578
3.26044
3.92922
4.17564
4.29126
4.29779
6.68154
6.31782
5.89679
5.11843
2.79691
1.61677
1.0583
0.167026
2.84829
2.21558
2.41313
2.81912
3.01888
2.94107
2.63993
2.42749
2.9746
4.00199
4.09265
4.24213
4.07883
6.67842
6.36979
5.92991
5.15704
4.64979
4.07429
3.93785
0.234819
3.18216
3.36937
2.93545
2.76831
2.91895
2.94122
2.59013
2.36222
3.03012
3.92889
3.961
4.07632
4.15115
6.68526
6.39327
5.93527
5.20402
4.72015
4.1662
3.69418
3.13525
1.81619
1.89266
1.46828
0.96196
1.45262
1.81272
1.67292
2.98534
4.04926
4.1194
3.58159
3.24133
3.58246
3.99639
4.01183
4.1775
4.09289
6.68812
6.40369
5.95075
5.23855
4.81743
2.67876
1.60354
0.148564
0.133293
0.139797
0.160777
0.332174
0.565991
0.732944
1.1324
1.92906
2.84278
3.19254
3.17893
3.07094
3.20406
3.40784
3.50433
3.3873
3.5742
6.69158
6.41449
5.98243
5.28868
4.89766
4.17067
2.01459
0.77952
0.445986
0.155154
0.10671
0.107257
0.0933147
0.0867208
0.0902119
0.0884563
0.149034
0.708809
1.2992
1.76463
2.09672
2.23178
2.34034
2.56064
2.87388
6.69506
6.42239
6.00039
5.33409
4.97569
4.66468
4.84903
4.9787
2.86074
1.86956
0.121998
0.250947
1.02944
0.966751
1.21956
0.883261
0.734217
0.820387
1.49449
1.22433
1.16783
1.21735
1.50193
2.13522
2.39251
6.69645
6.43389
6.00942
5.36592
5.03564
4.75368
5.29489
5.74824
5.98543
5.28029
3.46264
2.24252
1.5942
1.55572
1.69732
1.95756
2.24635
2.42986
1.81929
0.800085
0.744314
0.973037
1.65255
2.48267
2.45058
6.69872
6.43446
6.01532
5.38573
5.07051
4.80091
5.43057
5.70437
6.47289
6.51317
5.81675
4.47105
1.59122
1.7425
2.15701
2.58305
2.69759
2.74631
2.69444
2.53407
2.17751
1.94857
2.79987
4.20743
3.95424
6.69792
6.42067
5.98021
5.56786
5.25251
4.9786
4.7806
4.69892
4.80746
5.77568
6.37618
2.7937
1.64114
1.88494
1.93709
2.17861
2.09774
2.36692
2.69495
3.04318
3.34037
3.80183
4.31285
5.55929
5.21971
6.71044
6.41343
6.15775
5.8431
5.5996
5.34798
4.83695
4.39589
3.9791
3.95785
3.98528
2.04659
1.56558
1.69839
1.96391
1.90524
1.83135
1.94014
2.13126
2.32686
3.0027
3.80777
4.27121
4.44224
5.07928
6.70972
6.4154
6.15455
5.83665
5.62199
5.00477
4.56906
1.30305
1.1258
1.38533
1.3825
1.57925
1.73317
2.06007
2.25388
2.14216
2.19868
2.12799
1.48692
2.09236
2.342
2.75555
2.90674
3.23393
3.86382
6.71079
6.41313
6.16148
5.81947
5.63065
5.29689
4.83575
0.547617
1.23227
2.07003
1.6952
1.39994
1.24773
1.34687
1.83324
1.87213
2.20076
1.43169
1.41231
1.70294
2.32472
2.49517
2.4338
2.60854
3.1753
6.70489
6.42541
6.15046
5.85377
5.59623
5.33462
5.08914
4.84335
4.64243
4.35475
4.0855
3.83279
3.71225
3.54358
3.38048
3.18895
2.52751
1.99055
1.75618
2.00883
3.17582
3.02864
3.62872
4.26559
4.45251
6.73483
6.7303
6.62646
6.6125
6.63467
6.58126
6.44895
6.24832
6.0917
6.00703
5.93545
5.91853
5.94131
5.96367
5.97626
5.97635
6.00358
6.1193
6.34971
6.68376
7.10328
7.5984
8.20385
9.61368
10.3684
6.73729
6.73213
6.5963
6.58895
6.54672
5.9042
5.19257
5.01504
4.9851
5.03657
5.19712
5.59608
6.05319
6.3977
6.84582
7.45255
8.1827
8.97127
9.6951
10.3154
10.8
11.1568
11.012
11.148
11.2384
6.74354
6.72593
6.60126
6.50948
6.51344
4.43906
3.7448
3.97046
4.41357
4.6757
4.83425
5.55245
6.40023
6.92942
7.49951
8.1848
9.0094
9.83569
10.4553
10.8571
11.0567
11.0906
10.7037
9.6209
9.6914
6.75117
6.7196
6.62406
6.49788
6.55957
5.37194
4.47416
4.59781
4.82618
4.90004
5.05974
5.45324
5.89983
6.1667
6.32979
6.32296
6.51036
6.98786
7.30182
7.30214
7.22656
7.13794
6.74193
6.4174
6.39718
6.7689
6.68093
6.62875
6.51125
6.42234
3.64371
2.23366
2.54194
4.15951
3.90291
3.88865
4.05429
4.64126
4.82775
4.91904
4.93535
4.83579
5.03212
5.63515
5.92392
5.84118
5.7555
5.65487
5.66955
5.53831
6.76662
6.68488
6.63712
6.68973
5.34887
2.24666
2.43794
3.70926
2.09788
3.87454
4.67812
4.62914
4.03941
3.41404
3.64178
4.44101
4.79134
4.76146
4.80157
4.88545
5.2068
5.52055
5.63843
5.69321
5.55808
6.76787
6.67382
6.63523
6.68341
4.02414
1.9446
1.7529
1.64682
1.47245
2.74528
2.87259
3.55465
4.03299
3.96738
3.61143
3.33617
4.05208
5.4439
5.69528
5.71282
5.58698
6.75215
6.70526
6.62583
6.52041
6.22924
4.09445
3.7449
0.229153
2.35932
2.44189
2.84439
2.66438
2.38172
2.28724
2.15003
2.04612
2.93313
5.1374
5.5232
5.61468
5.4505
6.74711
6.71205
6.6127
6.45188
6.29528
6.21602
5.41138
0.241584
2.95708
2.85845
2.11811
2.33937
2.69332
2.62753
2.26833
2.06332
3.09617
5.13958
5.41602
5.5061
5.44021
6.74758
6.71257
6.62009
6.45076
6.28858
6.12024
5.79884
3.85659
2.45636
2.6651
2.1282
0.980054
1.64221
2.04779
2.65822
4.19975
4.56168
4.12281
3.41889
3.20709
4.27224
5.36147
5.40843
5.39393
5.32138
6.74746
6.71372
6.62441
6.46043
6.32184
6.08803
5.19588
2.63445
2.42531
2.63896
2.61537
2.61867
2.40611
2.33376
3.59154
5.26373
5.36407
4.81244
4.20635
3.92983
4.14265
4.42942
4.49585
4.5575
4.71635
6.74729
6.71448
6.62982
6.47277
6.3511
6.25508
6.58358
4.67841
2.61648
1.27159
1.26922
1.40847
1.56118
1.76374
2.81628
3.76402
3.95728
3.97621
3.76354
3.58166
3.36815
3.30076
3.48398
3.87334
4.10441
6.74682
6.71505
6.63125
6.47716
6.33032
6.27437
6.77909
6.95636
6.55947
4.7691
2.816
2.20636
2.22353
2.59487
3.18696
3.46851
3.35968
3.32094
3.14739
2.12405
1.9993
2.38981
3.23228
3.92206
4.12066
6.74639
6.71511
6.63005
6.48102
6.3458
6.27089
6.82477
6.99328
7.79896
7.14622
5.71829
4.85468
4.1963
4.17746
4.20984
4.2167
4.19137
4.1658
3.8411
3.41406
3.04245
3.17608
3.90772
4.86946
4.77244
6.74612
6.71443
6.62975
6.48357
6.3464
6.28545
6.73638
6.76722
7.90635
8.21611
7.25553
6.84111
5.03999
4.18259
4.11692
4.10835
4.11679
4.32154
4.65543
4.84067
5.09263
5.2351
5.99494
6.90667
6.60951
6.74515
6.71517
6.62343
6.51312
6.38697
6.23358
6.16278
5.83681
6.09799
7.08166
7.5529
6.95032
5.43411
4.41157
3.95296
3.91998
4.03165
4.19957
4.63617
5.45123
6.33841
7.16459
8.32978
8.33014
8.21904
6.75252
6.70171
6.65281
6.55119
6.44702
6.33703
6.18314
6.07655
5.916
5.83205
5.79445
5.28568
5.33081
5.20261
4.48158
4.09399
4.74913
4.25295
4.39301
5.27435
5.77221
6.37411
6.91981
7.91047
8.1175
6.75319
6.70068
6.65332
6.53999
6.4619
6.30169
6.11909
5.35137
4.56168
4.13303
3.7625
3.52742
3.60655
3.79554
4.02613
4.48948
4.93163
4.72158
4.8141
5.24011
5.62864
5.83991
5.86465
6.83116
6.9948
6.75076
6.70545
6.64739
6.54887
6.44861
6.31724
6.18362
5.62265
5.48933
4.9509
4.47074
4.04839
3.86225
3.70463
3.6151
3.4847
3.66602
3.43901
3.93901
5.12258
4.66212
5.27252
5.1433
6.49453
6.55838
6.74835
6.70921
6.6444
6.555
6.44494
6.3322
6.18643
6.07452
5.9094
5.79791
5.60689
5.45344
5.28939
5.21929
4.94692
4.84876
4.8005
4.699
4.83089
4.91288
4.92869
5.74005
6.60691
7.44792
7.68854
6.73876
6.74326
6.72486
6.79382
6.84888
6.95445
6.98141
6.94461
6.9016
6.90058
6.88227
6.89519
6.89374
6.83813
6.72371
6.60304
6.57042
6.69067
6.95752
7.34045
7.81535
8.37518
9.04944
10.4927
11.2738
6.74123
6.74368
6.72721
6.77764
6.9202
7.11874
7.03268
6.94528
6.84388
6.82811
6.93526
7.15693
7.2742
7.35657
7.68091
8.22356
8.93879
9.7347
10.4576
11.0917
11.622
12.0021
11.9731
12.1153
12.0749
6.7449
6.74499
6.74082
6.77436
7.03083
7.33257
7.04602
6.97898
6.99793
7.00556
7.15726
7.51463
7.57571
7.72212
8.1721
8.84138
9.65321
10.4487
11.0614
11.4962
11.7503
11.8491
11.4127
10.1703
10.3292
6.7497
6.74469
6.74461
6.7888
7.00519
7.45791
7.4634
7.46695
7.48892
7.10317
6.74858
6.91218
7.35757
7.80667
7.98474
7.82507
7.74269
7.81409
7.78925
7.68102
7.59033
7.48058
7.07048
6.56483
6.8496
6.76144
6.72562
6.76474
6.83558
7.26358
7.18518
5.83637
5.60012
4.88584
4.02799
3.86673
3.89409
4.35754
5.21053
6.22254
6.85886
6.93742
6.96121
7.06117
6.96871
6.80986
6.73001
6.63691
6.55147
6.44014
6.75969
6.72723
6.77628
6.93582
7.59592
5.93941
5.08911
6.12693
2.66848
3.33696
3.92111
3.6433
2.91465
2.68559
3.49047
5.12699
6.00001
5.93925
5.72729
5.76026
6.22641
6.57794
6.63084
6.6654
6.58391
6.75899
6.72164
6.77139
6.92199
7.20492
5.05568
4.59757
2.54898
1.04217
1.82676
2.11015
2.94989
3.56223
3.58983
3.35457
3.28774
4.43611
6.39229
6.70431
6.67822
6.5947
6.74887
6.73458
6.74771
6.80766
7.02821
7.13896
7.47235
0.272278
1.73224
2.07191
2.01375
2.64777
3.12567
2.75689
2.28496
2.12985
3.21055
6.06057
6.64952
6.64816
6.53989
6.74647
6.73483
6.73369
6.74344
6.81163
7.19999
6.21835
0.216241
2.35123
1.77286
2.23477
3.71344
3.94884
3.34055
2.65218
2.36777
3.65411
6.20159
6.57681
6.61476
6.51175
6.74592
6.73521
6.72996
6.71801
6.74389
6.95497
6.92657
4.03284
2.79226
2.99744
2.14542
0.9139
1.47336
1.98707
3.43254
4.72536
4.71937
4.05339
3.43173
3.41519
4.94495
6.43428
6.50867
6.50396
6.41249
6.74523
6.73644
6.72739
6.71058
6.72925
6.87045
7.69072
8.02488
6.25678
4.84498
4.11953
3.73197
3.43174
3.75848
5.65999
6.80068
6.51302
5.78622
5.1865
5.08666
5.49078
5.75067
5.83747
5.90559
5.9502
6.74471
6.73687
6.72378
6.70535
6.7143
6.8554
7.44118
7.91722
6.90056
4.72402
3.4331
3.00219
3.19675
4.43777
6.04961
6.43384
6.19595
5.82692
5.30493
4.92162
4.76773
4.76578
5.0105
5.38959
5.49463
6.74469
6.73581
6.71881
6.69943
6.68557
6.78519
7.27598
7.93473
8.46208
6.9364
5.21652
4.34193
4.54256
5.2849
5.75547
5.65894
5.52526
5.51681
5.22189
4.85592
4.50782
4.66194
5.13215
5.74268
5.83343
6.7452
6.73359
6.71469
6.69591
6.66764
6.75667
7.16377
7.83119
8.8657
8.34222
7.24597
6.76859
6.68364
6.58041
6.34898
6.12653
6.03906
6.04473
5.69691
5.4542
5.23303
5.40374
5.96731
6.54154
6.35271
6.74487
6.73246
6.71375
6.69337
6.65649
6.75801
7.04756
7.38738
8.78845
8.80385
8.15722
7.88767
7.74561
6.93919
6.27186
6.05276
6.04983
6.40671
6.68867
6.83308
7.09789
7.3404
7.75736
8.50422
8.0592
6.74416
6.73146
6.71669
6.6903
6.65148
6.63893
6.61861
6.23994
6.70854
7.73701
7.9787
7.96464
7.72471
7.30185
6.63841
6.29923
6.41176
6.75487
7.14543
7.71231
8.43386
9.23461
10.2557
10.2283
10.2515
6.74709
6.72542
6.72089
6.68161
6.65373
6.62579
6.54406
6.52265
6.55477
6.57626
6.50279
6.45348
6.97548
7.06907
7.12989
7.45606
7.4662
7.40452
7.62207
7.706
7.98773
8.69475
9.3003
10.0114
10.3572
6.74791
6.72484
6.71709
6.68032
6.66047
6.59925
6.58254
6.53213
6.30685
6.04978
5.857
5.69064
5.65411
5.64707
5.92231
6.16531
6.90565
7.03589
7.7413
7.82243
8.0689
8.5569
8.76696
9.30385
9.74557
6.74487
6.73074
6.7098
6.68907
6.64726
6.61664
6.5578
6.52526
6.47204
6.26247
6.08143
5.85176
5.71769
5.4765
5.47044
5.39338
5.51431
5.47464
5.99266
6.86951
7.45499
8.15451
8.5217
9.22644
9.58874
6.74423
6.73114
6.71062
6.68755
6.6503
6.61428
6.56069
6.51849
6.44674
6.41187
6.33591
6.3047
6.19037
6.1818
6.06876
6.09317
6.14319
6.34996
6.49046
7.14455
7.55534
8.99153
9.59776
10.7779
10.7908
6.73875
6.74402
6.72845
6.79786
6.86859
6.97932
7.02433
7.05826
7.11906
7.17462
7.22567
7.28612
7.29294
7.19441
7.01532
6.86327
6.84869
7.01338
7.33015
7.76111
8.2826
8.8964
9.61853
11.0786
11.8623
6.74407
6.7365
6.74371
6.80085
6.88437
7.06289
7.20117
7.33092
7.3974
7.5181
7.71495
7.83492
7.81935
7.85274
8.12578
8.66841
9.3889
10.1924
10.9086
11.5334
12.0746
12.5481
12.5534
12.6135
12.5651
6.74557
6.74045
6.75019
6.79663
6.93994
7.20587
7.6563
7.86588
7.98883
8.13755
8.27507
8.18382
7.91271
7.9972
8.44032
9.11734
9.92577
10.7079
11.3227
11.776
12.0671
12.2151
11.7889
10.4864
10.7019
6.74722
6.74442
6.75398
6.80899
6.97257
7.27518
7.85361
8.37186
8.66967
8.35272
7.77743
7.75132
8.0137
8.3603
8.48944
8.33299
8.13281
8.01808
7.88856
7.77431
7.69506
7.60488
7.22938
6.55688
7.11437
6.75236
6.7399
6.75569
6.83394
7.08973
7.54548
7.89415
8.2741
5.56314
4.33458
4.11363
4.20091
4.73808
5.75661
7.04207
8.00045
8.12665
7.91942
7.66101
7.40085
7.21195
7.10958
7.0322
6.95676
6.8776
6.75467
6.73223
6.78051
6.878
7.27837
7.71083
7.78725
6.83231
2.07771
3.07738
2.84464
2.63111
2.65001
3.01514
4.18156
5.88702
6.69563
6.5571
6.29684
6.35231
6.74409
6.97253
7.0075
7.11054
7.11083
6.75073
6.73554
6.76481
6.86434
7.19286
7.57045
7.89063
3.63765
0.828406
1.72129
2.81887
4.27911
4.62346
4.25529
3.8751
3.94294
5.27615
6.86803
7.06859
7.12989
7.13187
6.74665
6.73583
6.74727
6.81107
7.0065
7.71119
7.38223
0.348376
1.64551
1.9673
3.55684
5.30634
5.21562
4.3084
3.45664
3.13102
4.39607
6.73357
7.09459
7.1324
7.12314
6.74569
6.73451
6.74057
6.76703
6.88568
7.36387
6.16607
0.173247
1.60981
2.09101
4.3519
5.95495
5.63974
4.6426
3.72031
3.44355
4.90611
6.83668
7.06831
7.12712
7.11862
6.74484
6.73556
6.7366
6.74707
6.81797
7.15002
7.6391
4.12677
3.01134
2.93254
2.07776
0.818039
1.19327
2.5562
4.67924
5.96272
5.68333
4.88104
4.25254
4.40895
5.91279
6.95041
7.01107
7.05381
7.06734
6.74389
6.73719
6.73327
6.73558
6.79001
6.99786
8.02832
9.38702
7.73378
5.64931
4.66724
4.26686
4.21588
5.29045
7.12786
7.67984
7.25231
6.57198
6.12578
6.19582
6.5657
6.70816
6.76399
6.85335
6.87279
6.74346
6.73774
6.72836
6.729
6.76749
6.93928
7.62951
8.6623
9.10732
7.84204
6.29786
5.46131
5.74985
6.99945
7.94689
8.01282
7.731
7.32901
6.82923
6.45516
6.30274
6.2738
6.42045
6.66826
6.68889
6.74398
6.73628
6.7225
6.72361
6.73414
6.88003
7.4113
8.42738
9.22953
8.43755
7.20448
6.59672
6.86531
7.32921
7.59557
7.48222
7.3578
7.23587
6.8562
6.55804
6.35029
6.37329
6.54976
6.81895
6.91948
6.74511
6.7334
6.7184
6.7198
6.71761
6.88432
7.28439
8.27376
9.26382
8.70888
7.98549
7.71104
7.74319
7.82312
7.80343
7.63928
7.57373
7.49353
7.18486
7.00174
6.91542
7.01282
7.0915
7.29061
7.01055
6.74474
6.73254
6.71797
6.71627
6.70593
6.90229
7.1449
7.72418
9.18487
8.93948
8.25975
8.02716
8.10475
8.27509
8.11547
7.94061
7.90724
7.91314
7.75421
7.61136
7.7115
7.97658
8.56971
9.80934
9.14633
6.74371
6.73177
6.7227
6.70948
6.68644
6.73579
6.72721
6.40046
7.05093
8.08002
8.23913
8.11817
8.11994
8.38778
8.6604
8.55787
8.69289
8.81953
8.99366
9.33584
9.89947
10.6144
11.801
11.2612
11.7471
6.7448
6.72771
6.72755
6.69511
6.69225
6.68716
6.61655
6.66902
6.75884
6.8094
6.78087
6.93033
7.27504
7.55344
7.84547
8.34455
8.86359
9.1394
9.29905
9.5886
9.8804
10.7791
11.1957
11.8142
12.048
6.74582
6.72772
6.71895
6.70418
6.68834
6.66986
6.66165
6.64216
6.64147
6.60079
6.57116
6.55833
6.56933
6.62238
6.90431
7.2116
7.9536
8.31484
8.8353
9.30517
9.69022
10.2903
10.6086
11.2946
11.7886
6.74383
6.73127
6.71552
6.70596
6.68478
6.67458
6.65635
6.63195
6.63677
6.59757
6.60114
6.51559
6.47719
6.44966
6.49589
6.56935
6.74209
6.79239
7.33723
8.31421
9.1919
10.0225
10.584
11.3896
11.7831
6.7435
6.73141
6.71609
6.70494
6.68623
6.67276
6.65547
6.63997
6.61162
6.614
6.60179
6.62764
6.49407
6.62197
6.64737
6.78948
6.90572
7.23756
7.5519
8.68362
9.36316
10.9443
11.6805
12.7452
12.9342
6.7424
6.73436
6.74102
6.76569
6.84288
6.91332
6.96709
7.04625
7.13065
7.20353
7.29655
7.38028
7.38279
7.26215
7.07669
6.9541
6.99271
7.20833
7.56721
8.03203
8.58101
9.21558
9.96245
11.4379
12.1806
6.74493
6.7342
6.73985
6.76692
6.84967
6.95629
7.07636
7.22492
7.42705
7.67121
7.96596
8.13441
8.14571
8.19149
8.47658
9.02701
9.74659
10.5228
11.216
11.8197
12.3601
12.8403
13.0567
13.0154
12.8173
6.74549
6.73789
6.74553
6.77423
6.86898
7.01256
7.42816
7.82101
8.13783
8.45566
8.66866
8.5261
8.27412
8.34582
8.76416
9.41853
10.2032
10.9425
11.5259
11.9657
12.2618
12.4395
12.0384
10.7693
10.9298
6.74625
6.74097
6.75079
6.79068
6.90066
7.07376
7.61954
8.32204
8.88982
8.80518
8.52992
8.58328
8.66219
8.75719
8.77228
8.55437
8.32049
8.16103
8.01643
7.90477
7.83143
7.7564
7.45865
7.02377
7.30082
6.74761
6.74186
6.75215
6.8099
6.95348
7.20989
7.91953
9.30656
7.76398
6.01958
5.37832
5.54645
6.31329
7.26596
8.1928
8.70269
8.62971
8.30283
7.94733
7.64403
7.44342
7.34542
7.28658
7.18331
7.14184
6.74846
6.73917
6.75252
6.82133
7.01651
7.39229
8.76071
5.71582
2.6588
2.62522
3.01415
3.31991
3.80195
4.82413
6.31098
7.50358
7.71272
7.37267
7.0565
7.00166
7.13011
7.18755
7.21364
7.31803
7.34118
6.74709
6.7368
6.74969
6.81569
6.9994
7.48401
8.57957
5.28232
2.87125
3.71466
3.66831
3.36088
3.1105
3.60911
5.52395
6.88249
6.69651
5.9958
5.45584
5.52842
6.49011
7.18046
7.25091
7.31434
7.34929
6.74581
6.73413
6.74312
6.79289
6.93797
7.51811
7.50404
3.99756
3.4667
4.12917
3.87579
3.43876
3.11813
3.73592
6.45118
7.63751
7.06362
6.01032
5.12836
4.95892
6.08747
7.17207
7.27754
7.33241
7.35851
6.74517
6.73335
6.73823
6.75752
6.86494
7.3545
6.92913
3.10392
3.15559
3.49735
3.32115
2.99534
2.88562
4.42409
7.07503
7.96723
7.30366
6.18821
5.30409
5.24324
6.37031
7.19047
7.26531
7.32701
7.35927
6.74417
6.73492
6.73467
6.74265
6.81351
7.12092
9.00726
5.48211
3.69629
3.45418
3.13806
2.86607
3.13829
5.11047
7.29337
7.80415
7.22769
6.359
5.7899
5.99236
6.84312
7.21345
7.24066
7.3172
7.34827
6.74317
6.73683
6.73135
6.73223
6.78829
6.97802
8.05791
9.49177
8.95324
6.89606
5.44946
5.16744
5.68982
7.29347
8.40494
8.5559
8.09508
7.48279
7.0974
7.06726
7.16584
7.17141
7.20299
7.29559
7.32046
6.74299
6.73741
6.72623
6.72729
6.75642
6.92267
7.76383
8.80086
9.5414
8.97863
8.01155
7.59413
7.92779
8.4336
8.77333
8.75143
8.48864
8.09162
7.66498
7.35404
7.19479
7.12075
7.16695
7.29325
7.33707
6.74404
6.73551
6.72041
6.72402
6.73197
6.89603
7.52965
8.67806
9.45653
8.89073
8.28738
8.05584
8.10728
8.31173
8.48902
8.43834
8.2917
8.0508
7.71332
7.44548
7.31587
7.25424
7.32992
7.38709
7.46456
6.74558
6.73221
6.71716
6.72106
6.72194
6.93865
7.38835
8.54248
9.51285
8.87633
8.24001
8.10904
8.13273
8.2519
8.4409
8.42778
8.35136
8.18009
7.93111
7.73806
7.69912
7.68911
7.47578
7.53146
7.26733
6.74513
6.73167
6.71721
6.71765
6.71489
6.98409
7.18687
8.01766
9.47093
9.12927
8.41275
8.18294
8.21454
8.50126
8.83149
8.96022
8.87644
8.58795
8.20182
7.99927
8.09404
8.4223
9.16274
10.4225
9.89499
6.7433
6.73225
6.72246
6.71157
6.68426
6.76346
6.72937
6.52007
7.406
8.35974
8.49046
8.17247
8.30758
8.73715
9.49375
9.85704
10.0321
10.0307
10.0639
10.3286
10.843
11.5693
12.8071
12.3327
12.5908
6.7429
6.73049
6.72691
6.69277
6.70475
6.68596
6.62839
6.72953
6.8357
6.86991
6.83844
7.08933
7.3972
7.74228
8.11247
8.76303
9.49078
9.97115
10.2868
10.8296
11.2788
12.1367
12.431
13.029
13.2627
6.74501
6.72887
6.71749
6.70838
6.68993
6.68007
6.67912
6.65668
6.66005
6.71895
6.74144
6.78543
6.81058
6.89637
7.18623
7.66593
8.34328
8.89877
9.46357
10.1142
10.6218
11.3186
11.6989
12.5903
13.0688
6.74399
6.73058
6.71657
6.70636
6.69046
6.68387
6.67234
6.65679
6.67059
6.66496
6.65768
6.72438
6.74121
6.77936
6.85549
7.00106
7.21281
7.43918
8.17791
9.2
10.1328
11.1316
11.7201
12.7227
13.2088
6.74357
6.73105
6.7164
6.70643
6.69076
6.68202
6.67454
6.66364
6.65426
6.66615
6.68656
6.71233
6.64373
6.69641
6.8434
7.02564
7.21155
7.62743
8.19748
9.5864
10.6911
12.0073
12.9166
13.9685
14.2819
6.74418
6.72991
6.7444
6.75485
6.81698
6.88229
6.91204
7.02083
7.0894
7.17281
7.26251
7.3224
7.29412
7.16364
7.0089
6.94586
7.04395
7.30247
7.69049
8.17489
8.7317
9.36182
10.0871
11.5259
12.2188
6.74495
6.73308
6.73633
6.76157
6.82536
6.89757
7.00591
7.15113
7.36392
7.66503
7.98356
8.18714
8.27985
8.42106
8.76126
9.31957
10.0374
10.7577
11.4215
12.0143
12.5494
13.0086
13.3577
13.2601
12.871
6.74515
6.73612
6.74218
6.76347
6.82915
6.93352
7.31621
7.75112
8.13897
8.58324
8.85969
8.83613
8.73368
8.8313
9.20533
9.81633
10.5532
11.2264
11.7543
12.1659
12.4522
12.6229
12.2295
11.0028
11.0861
6.74572
6.73824
6.74678
6.77336
6.85173
6.96649
7.49636
8.18328
8.72665
8.86376
8.88259
8.97244
9.0644
9.15363
9.06484
8.83669
8.62371
8.45673
8.29814
8.17677
8.09782
8.02808
7.78369
7.32015
7.55945
6.74619
6.73893
6.74919
6.78376
6.88088
7.04145
7.66858
8.90237
9.48964
8.65992
8.08403
8.13138
8.49077
8.80955
9.02558
9.01368
8.78311
8.45014
8.10654
7.8197
7.63754
7.55
7.47646
7.33897
7.32239
6.74628
6.73741
6.74929
6.79562
6.91429
7.15131
8.25132
9.54481
5.94538
5.01914
5.07125
5.70116
6.7905
7.88245
8.60161
8.79304
8.51328
8.06561
7.68377
7.46771
7.39024
7.35595
7.34869
7.38018
7.41031
6.74583
6.73437
6.74539
6.79101
6.91751
7.26093
9.07794
7.54053
5.28987
4.9443
4.84802
4.93027
5.63909
7.17544
8.58347
8.86188
8.32469
7.60873
7.09165
7.0059
7.25482
7.3743
7.36794
7.38557
7.39634
6.74528
6.73216
6.73996
6.76789
6.88746
7.33005
8.89669
8.65607
6.03117
5.49911
5.22371
5.01984
5.47895
7.37984
9.18848
9.33004
8.55592
7.59758
6.89323
6.76806
7.16921
7.39515
7.38684
7.39715
7.40472
6.74449
6.73252
6.73544
6.75141
6.83967
7.24038
8.92875
5.85701
5.12804
5.07828
4.86491
4.76834
5.51827
7.88218
9.4272
9.4595
8.67513
7.69093
6.99282
6.88994
7.22767
7.38758
7.3792
7.39408
7.40759
6.74349
6.73441
6.73251
6.73658
6.80133
7.05142
8.76299
9.43411
6.54227
5.40099
4.96802
5.1782
6.55773
8.35995