/*--------------------------------*- C++ -*----------------------------------*\
  =========                 |
  \\      /  F ield         | OpenFOAM: The Open Source CFD Toolbox
   \\    /   O peration     | Website:  https://openfoam.org
    \\  /    A nd           | Version:  6
     \\/     M anipulation  |
\*---------------------------------------------------------------------------*/
FoamFile
{
    version     2.0;
    format      ascii;
    class       volScalarField;
    location    "5";
    object      epsilon;
}
// * * * * * * * * * * * * * * * * * * * * * * * * * * * * * * * * * * * * * //

dimensions      [0 2 -3 0 0 0 0];

internalField   nonuniform List<scalar> 
230684
(
0.186544
0.188656
0.3252
0.31827
0.482917
0.464278
0.478799
0.808559
0.510925
0.57669
0.564099
0.442946
0.664148
0.685725
0.713664
0.735705
0.759152
0.754711
0.783515
0.741957
0.722047
0.61361
0.582458
0.520601
0.48443
0.189094
0.19522
0.392734
0.395062
0.762055
0.82883
2.11963
1.01054
0.82089
0.880051
1.16906
1.26256
1.05045
2.23567
2.37159
2.23988
1.15575
1.89054
1.84187
1.66793
1.92896
1.65867
0.92151
0.461307
0.451039
0.191484
0.198148
0.400507
0.698548
1.48907
1.25979
1.27668
1.17066
0.857318
0.799018
0.796977
0.859054
0.886432
0.918478
0.85841
0.859713
0.833542
0.852743
0.855068
0.876695
0.787618
0.734089
0.469884
0.268485
0.271906
0.192444
0.356017
0.644255
0.828225
0.898844
1.37807
2.02119
0.917217
0.912918
0.928266
0.939491
2.46712
2.10249
1.98143
2.4154
0.880036
0.795362
0.855874
0.831465
0.834184
0.759694
0.768967
0.52299
0.30029
0.229923
0.189993
0.183426
0.362455
0.672205
0.753352
0.884469
0.957287
1.07146
1.18113
1.02738
1.07312
2.77815
2.0943
2.10742
2.56687
0.888973
0.807627
0.853503
0.837854
0.826638
0.819495
0.830361
0.621403
0.311922
0.227773
0.19006
0.185766
0.364109
0.65156
1.45885
1.05214
1.01016
1.03743
1.0371
0.88586
0.808672
0.835403
1.08955
0.934438
2.78126
0.989519
0.892089
0.874534
0.910117
0.870878
0.828191
0.843922
0.603501
0.317802
0.232573
0.190038
0.185094
0.358429
0.664417
3.82157
1.02662
0.963383
1.08906
1.0254
0.969963
0.958278
1.05033
1.56618
0.676241
0.701277
0.871414
0.960018
0.910477
0.903038
0.871504
0.89978
0.893743
0.671079
0.333913
0.243423
0.190293
0.189878
0.370918
0.662983
0.709046
0.798703
0.849749
4.63529
1.08308
1.03128
0.998764
1.01856
1.55998
1.06576
0.798011
0.867604
0.912
0.900917
0.944688
0.942667
0.945385
1.00471
0.698378
0.3412
0.249278
0.190478
0.198907
0.394896
0.688786
0.740219
0.761147
0.757743
1.37428
1.05448
1.00024
0.99525
1.04717
1.01103
0.850968
0.80652
0.851928
0.92807
0.994355
0.919221
0.953177
0.926409
0.896253
0.680001
0.345546
0.255753
0.191572
0.200398
0.400172
0.705122
0.765243
0.773051
0.721481
1.70937
0.984438
1.10943
0.930688
1.49411
1.13633
1.01733
0.974859
0.913781
0.888913
0.874739
0.910934
1.02812
0.955332
0.979675
0.69949
0.346404
0.255094
0.195014
0.215695
0.428198
0.714795
0.804527
2.6078
1.81195
1.12646
1.08343
1.08495
1.10953
1.50526
1.65069
1.25533
0.823078
0.91943
0.93812
0.951861
0.907746
0.929443
0.921321
0.949948
0.684671
0.328224
0.24042
0.204204
0.234095
0.46731
0.735209
0.72502
0.984855
1.58737
0.892336
1.34735
1.09723
1.13318
1.08936
1.02436
1.0323
1.02945
1.04804
1.24955
1.13074
1.94783
1.72768
1.06492
0.900205
0.593385
0.285192
0.218319
0.215342
0.252939
0.491596
0.752209
0.731217
0.730631
0.777228
1.20581
1.25495
1.23441
1.46569
2.07123
0.994789
1.71441
2.87342
1.71949
3.05946
1.09634
2.18316
1.61273
1.98367
0.893278
0.554769
0.435233
0.216196
0.207836
0.290359
0.558637
0.765539
0.73812
0.737007
0.722716
0.73269
0.76462
0.821745
0.904392
0.86788
0.902283
0.969445
1.27956
2.71739
0.945716
1.07074
3.058
1.16769
2.05598
1.4326
1.72483
0.900275
0.237151
0.207839
0.315357
0.603481
0.79258
0.730786
0.734899
0.726711
0.741387
0.740394
0.79482
0.804392
1.98211
2.05518
2.18115
1.69291
0.949318
0.825286
1.02594
0.93713
0.874219
0.890769
1.99251
2.22235
0.869416
0.27419
0.20892
0.330177
0.561485
0.454117
0.444654
0.420512
0.447412
0.425943
0.538234
0.426822
0.739087
4.82507
2.21001
2.64221
1.0995
1.01002
0.944573
0.701442
1.04116
1.52951
1.51547
1.5307
0.948354
0.35772
0.372839
0.191485
0.317835
0.297108
0.259863
0.234004
0.226511
0.410261
0.402422
0.262544
0.436359
0.72257
1.30558
2.0465
2.28657
2.32249
0.954297
1.05685
0.856355
1.56684
0.92528
2.02804
1.07817
0.549277
0.405328
0.399745
0.191076
0.225431
0.30917
0.280954
0.251536
0.438083
0.824369
0.902481
0.463521
0.292335
0.411934
0.7081
0.722384
0.998506
1.03448
1.00022
0.941568
0.889234
1.43422
0.895028
1.69865
0.553575
0.509419
0.339115
0.311708
0.189585
0.188346
0.23254
0.256151
0.248164
0.224368
0.444354
1.00106
0.535042
0.36902
0.472737
1.78399
1.28347
1.01402
0.534623
0.442496
0.412498
0.893108
1.49217
1.51806
0.711044
0.401127
0.409564
0.29462
0.277567
0.193839
0.171202
0.20834
0.230279
0.230938
0.232316
0.242597
0.259923
0.28119
0.270993
0.248194
0.451937
0.474419
0.369526
0.300067
0.260506
0.465716
0.851243
0.785472
0.50893
0.464374
0.397261
0.318977
0.249275
0.247249
0.039298
0.0774411
0.309861
0.366279
0.280358
0.244226
0.306116
0.507805
0.448523
0.468846
0.447336
0.438657
0.445304
0.463947
0.580032
0.582379
0.749294
0.732817
0.813314
0.752327
0.761475
0.686548
0.613715
0.558602
0.614073
0.0439581
0.0623853
0.133251
0.146951
0.335009
0.494751
1.28461
1.03281
0.736366
0.803792
1.03831
1.28739
1.40591
1.72222
1.77471
1.88204
2.14821
2.04458
2.00391
2.14209
2.09127
1.89034
1.10789
0.88856
0.76375
0.0442149
0.0676584
0.125177
0.12937
0.789424
1.35926
0.165809
0.21057
0.261606
0.38271
0.408253
0.320932
0.264026
0.281828
0.284057
0.293588
0.311443
0.289337
0.28126
0.281295
0.216055
0.190346
0.256115
0.0426041
0.0646012
0.0905203
0.122533
0.432139
0.329632
0.183774
0.231247
0.293522
1.46148
0.217067
0.128779
0.220405
0.279885
0.312551
0.320006
0.314117
0.322249
0.245106
0.238579
0.205116
0.042118
0.0555154
0.0823989
0.109777
0.287514
0.604997
0.227877
0.202986
0.197036
0.251734
0.278735
0.819603
0.177399
0.18087
0.282042
0.305908
0.324118
0.329208
0.343025
0.25709
0.257114
0.22103
0.0423011
0.0550452
0.07837
0.131872
0.794974
0.373513
0.235091
0.258086
0.523762
0.700645
0.469735
0.171195
0.183449
0.271435
0.333242
0.332184
0.334634
0.355105
0.281171
0.2726
0.237895
0.0413161
0.0563793
0.0792605
0.137449
1.56466
0.731272
0.990002
0.227831
0.213522
0.239392
0.270163
0.322599
0.339268
0.357696
0.372943
0.376152
0.319324
0.283057
0.250816
0.0410882
0.0607456
0.0855493
0.105418
0.301883
0.370138
0.419848
3.33841
1.28406
0.173605
0.196442
0.266967
0.301033
0.322865
0.361914
0.369002
0.369966
0.381883
0.330787
0.292229
0.259685
0.0415469
0.0642846
0.0964935
0.111334
0.158053
0.272097
0.509083
0.732799
0.163271
0.187275
0.277858
0.319108
0.335981
0.354565
0.366082
0.36161
0.395293
0.3428
0.300278
0.270347
0.0421728
0.0732029
0.106868
0.121625
0.148261
0.265239
0.304628
0.636922
0.574894
0.25901
0.411641
1.14324
0.990965
0.219265
0.1885
0.24853
0.274686
0.312576
0.350091
0.353143
0.379124
0.399426
0.334792
0.296462
0.264875
0.0435243
0.0950891
0.120627
0.127716
0.177138
1.13244
1.22404
1.22728
0.974126
0.332253
0.309216
0.192015
0.203938
0.216986
0.244756
0.357406
0.374474
0.35792
0.319554
0.241015
0.231846
0.0356161
0.122714
0.13541
0.130906
0.146337
0.308556
1.12619
0.654254
1.04342
0.955718
0.510707
0.968148
0.359763
0.398821
0.210689
0.245925
0.265704
0.230245
0.0149738
0.163016
0.15395
0.1475
0.14782
0.211271
0.227798
0.678299
0.680977
0.506313
0.726345
1.00722
0.607127
1.99548
0.362302
2.67779
0.977038
0.255908
0.222976
0.344283
0.197562
0.00572652
0.219699
0.184076
0.162007
0.146428
0.202981
0.222408
0.236668
0.276784
0.268093
0.270531
0.563501
0.409537
0.354184
0.722137
2.68687
0.235531
0.245622
1.94327
1.88556
0.974702
0.285698
0.160778
0.0504521
0.316686
0.244573
0.167688
0.160621
0.194943
0.226239
0.246582
0.259909
0.277947
0.323519
1.15163
1.69709
2.09553
0.414467
0.347123
0.285914
0.327264
0.491799
0.599252
0.99947
0.657256
0.322766
0.258835
0.055274
0.347095
0.242892
0.165703
0.166368
0.188749
0.22736
0.32424
0.425997
0.366132
0.316388
3.21527
1.14389
0.734513
0.403179
0.380075
1.31097
0.419385
0.450168
0.0483745
0.222231
0.233074
0.129829
0.113036
0.11468
0.130646
0.18033
0.200624
0.205244
0.307436
0.885632
0.277057
1.52415
0.606824
0.58777
0.650795
0.267635
0.329997
0.540399
0.551509
0.479038
0.0430034
0.102838
0.324755
0.237589
0.159011
0.152606
0.413503
0.924589
0.431006
0.315866
0.246099
0.259626
0.473227
2.09802
0.962891
1.02785
0.619382
2.31937
0.95269
0.796606
0.679264
0.390705
0.318409
0.0430734
0.0641716
0.223924
0.266532
0.206619
0.182531
0.44766
1.56481
0.885134
0.472477
0.452202
1.47183
0.743283
0.442722
0.352012
0.324782
1.24565
2.6961
0.637553
0.489232
0.417308
0.241181
0.213648
0.0433584
0.0533647
0.112737
0.223041
0.210519
0.22064
0.264106
0.270861
0.255907
0.201676
0.176554
0.244274
0.36127
0.259433
0.212373
0.182395
0.192605
0.701807
0.784035
0.539655
0.322006
0.293012
0.238233
0.153595
0.141823
0.0318084
0.0647182
0.311636
0.356198
0.242412
0.157928
0.172054
0.4954
0.547525
0.508852
0.451329
0.405957
0.379832
0.374928
0.387956
0.39714
0.415025
0.426234
0.441687
0.440463
0.430438
0.398016
0.353271
0.305911
0.307358
0.0315009
0.0422124
0.109074
0.118045
0.297316
0.287559
0.441047
0.650641
0.712164
1.02817
1.1959
1.20152
1.31834
1.55785
1.66698
1.6143
1.82453
1.82526
1.79753
1.78805
1.71239
1.44975
0.828497
0.718122
0.613499
0.0308117
0.0411346
0.0844351
0.0679062
0.182671
0.226022
0.215537
0.142566
0.040537
0.0368474
0.0396327
0.0463903
0.0500797
0.055274
0.0487737
0.0501051
0.0513948
0.0503202
0.0500783
0.0507279
0.050504
0.0502223
0.0797757
0.123754
0.19811
0.0312177
0.0413321
0.0655668
0.0499242
0.0713555
0.176413
0.107599
0.0603214
0.0351325
0.03289
0.045987
0.184962
0.133278
0.140103
0.0418084
0.0319003
0.0316852
0.0325657
0.0330562
0.0336336
0.0335506
0.0336865
0.0407404
0.0590577
0.0841037
0.03075
0.0355205
0.0613405
0.0489705
0.0614316
0.212551
0.10643
0.102835
0.0427629
0.0352899
0.0449268
0.303195
0.128442
0.151401
0.0969161
0.0359362
0.0311538
0.0326514
0.033043
0.0338227
0.0337947
0.033646
0.0401381
0.0579667
0.0801554
0.0305925
0.0349883
0.0564034
0.0657076
0.38166
0.53441
0.097685
0.0734807
0.0753505
0.0726346
0.0670856
0.0619977
0.0381357
0.0313018
0.0329085
0.0336204
0.033566
0.0340361
0.0338519
0.0395603
0.0573135
0.0794581
0.0307238
0.0357892
0.0558864
0.071505
3.5351
1.50474
0.48165
0.0485509
0.0340536
0.0320926
0.0322938
0.0332087
0.0339194
0.0335814
0.0343238
0.0340938
0.0378468
0.0567291
0.0789318
0.0311262
0.0408837
0.0620617
0.0486276
0.0684019
0.135
0.232274
2.13866
0.232862
0.0412834
0.0325931
0.0324714
0.0326477
0.033314
0.0337849
0.0339373
0.0342014
0.0342726
0.0397683
0.0565082
0.078303
0.0302783
0.0454551
0.06949
0.051195
0.0346552
0.0411502
0.128111
0.852987
0.139465
0.0380814
0.0323114
0.0325242
0.0328787
0.0332773
0.0334089
0.0338868
0.0339193
0.0340937
0.0395276
0.0577454
0.0804573
0.0313264
0.0567203
0.0791866
0.0558594
0.0339271
0.0363065
0.091837
0.299003
0.226895
0.226745
1.35844
0.981718
0.170094
0.0422607
0.0322292
0.0326899
0.03254
0.032931
0.0332405
0.0341038
0.034147
0.0342333
0.039684
0.0591805
0.0825916
0.03353
0.0763541
0.0930125
0.062568
0.0387995
0.0566073
0.693099
2.61035
2.04112
2.34609
2.45689
0.869909
0.830344
0.821477
0.325864
0.216079
0.0949457
0.0370286
0.0332988
0.0343055
0.0346264
0.0339822
0.0379109
0.0579998
0.0823543
0.0150434
0.105144
0.104199
0.0695763
0.0334023
0.0368518
0.229842
0.358224
0.531075
2.00437
1.97871
2.56046
1.8443
1.75031
2.26156
1.71434
2.25853
0.132774
0.0711822
0.0729661
0.0710722
0.0396348
0.0388588
0.0669169
0.0896522
0.00669891
0.143453
0.125939
0.0758008
0.0323674
0.0328028
0.0365046
0.0619138
0.0772936
0.356704
2.56712
2.39646
0.140799
0.128952
0.209484
0.631837
0.66376
0.0737018
0.180118
0.123504
0.0663792
0.0445546
0.0467265
0.0708874
0.0888195
0.0189768
0.200283
0.155398
0.0867249
0.0339506
0.0327689
0.0333655
0.0358741
0.036105
0.0449289
0.063887
0.131513
0.0639805
0.0508983
0.0418913
0.0470458
0.0373549
0.0352759
0.138191
0.117649
0.24621
0.203963
0.150556
0.0867757
0.135769
0.0232124
0.290554
0.207576
0.0916954
0.0376914
0.0351379
0.0343616
0.0343437
0.0343495
0.0359658
0.0430144
0.300942
0.146081
0.142274
0.0568784
0.0389035
0.0354045
0.0338669
0.0402933
0.0504571
0.0584196
0.103974
0.080436
0.166095
0.272065
0.0280558
0.332137
0.214132
0.107829
0.0763945
0.0810758
0.125673
0.250179
0.283723
0.231971
0.213899
0.360146
0.177429
0.201385
0.331416
0.182254
0.17818
0.271755
0.260887
0.242624
0.229891
0.233029
0.329935
0.512493
0.458858
0.0333609
0.218862
0.202782
0.100417
0.0766886
0.0770551
0.0828811
0.130181
0.157127
0.161956
0.219172
0.487175
0.396927
0.463517
0.555906
0.300484
0.396473
0.631629
0.425715
0.488782
0.512486
0.737387
0.717972
0.551518
0.445186
0.0272864
0.102281
0.276835
0.201374
0.128424
0.108833
0.49
0.437376
0.34251
0.587601
0.405934
0.251336
0.333455
0.598129
1.02529
1.11289
1.01552
1.08339
0.340697
0.421207
0.715914
0.91263
0.668456
0.333563
0.26714
0.0308371
0.0381842
0.219091
0.249635
0.178516
0.165545
0.39944
1.22469
0.662368
0.51528
0.399244
0.354013
0.456049
0.71956
0.672344
0.684232
0.772649
0.915442
0.310448
0.508665
0.681872
0.637025
0.416253
0.216729
0.184929
0.0305581
0.0359375
0.102987
0.217636
0.202138
0.209147
0.224826
0.181778
0.167477
0.144684
0.132206
0.134399
0.160043
0.183625
0.200035
0.189781
0.216573
0.368166
0.486784
0.450533
0.481207
0.412833
0.277521
0.157379
0.137165
0.0306811
0.0565639
0.325896
0.413917
0.340144
0.315657
0.347804
0.54332
0.513773
0.463806
0.421807
0.389717
0.371132
0.361485
0.358328
0.354773
0.353602
0.353812
0.353625
0.349577
0.335758
0.304109
0.257658
0.212167
0.217398
0.0300763
0.0386244
0.121182
0.116046
0.247524
0.521524
0.738554
1.02777
1.11661
1.32728
1.4091
1.39581
1.43043
1.4501
1.63247
1.57025
1.6768
1.71906
1.71092
1.68022
1.63338
1.29168
0.757803
0.615017
0.524743
0.0298557
0.0368206
0.0790261
0.0609503
0.0420469
0.0419708
0.0386829
0.0415493
0.0363446
0.0353412
0.0355278
0.037679
0.0402269
0.0417923
0.0427512
0.0439296
0.0452592
0.0450215
0.0447566
0.0446645
0.0444482
0.0430755
0.0696744
0.101391
0.168003
0.0300273
0.0350492
0.0608655
0.0490091
0.0341166
0.0384867
0.0324246
0.0311841
0.0308834
0.0303015
0.0310387
0.0353956
0.0331936
0.0329471
0.0293464
0.0286857
0.0285638
0.0283794
0.0284027
0.0284531
0.0285328
0.0286483
0.0301465
0.0356291
0.0508663
0.029575
0.0332506
0.0543288
0.0443538
0.0343333
0.0439225
0.0398333
0.0493722
0.0375417
0.0325443
0.0323549
0.0391487
0.0335717
0.033359
0.0317301
0.0290014
0.0284843
0.0284547
0.0284417
0.0284398
0.0285836
0.0284923
0.0286678
0.0314757
0.0376697
0.0295897
0.0325271
0.0484738
0.0495095
0.0862553
0.0981644
0.112768
0.548658
0.311011
0.101809
0.0683898
0.0501752
0.0417498
0.0319934
0.030377
0.0289676
0.028567
0.0283708
0.0284673
0.0284357
0.0284448
0.0285237
0.0284828
0.030126
0.0353584
0.0295139
0.0335723
0.0486776
0.0501392
0.132206
0.100205
0.156473
0.830771
0.467343
0.0421495
0.0298148
0.0286826
0.028472
0.0284485
0.0284976
0.0282865
0.0284635
0.0284262
0.0283697
0.0297005
0.0343174
0.0284198
0.0373602
0.0541748
0.0458359
0.0351731
0.0528389
0.135075
1.27722
0.150552
0.0371717
0.0299097
0.0287211
0.0284911
0.0283969
0.0284182
0.0283729
0.0284466
0.0284345
0.0283745
0.0295795
0.0335359
0.0291079
0.0443787
0.0626969
0.0482623
0.0328771
0.0369545
0.10588
0.838816
0.101275
0.0347985
0.0296095
0.02868
0.0284239
0.0284315
0.028413
0.0284893
0.0284101
0.0284285
0.0283866
0.0297313
0.0339139
0.0305621
0.0556208
0.0712694
0.0528713
0.0318909
0.0321529
0.0498847
0.186655
0.157527
0.201415
0.985587
0.922156
0.115677
0.033663
0.0293043
0.0286186
0.0285617
0.0284719
0.0284463
0.0284165
0.0284286
0.0284328
0.0284235
0.030059
0.0349873
0.0323753
0.0733408
0.0853343
0.0597494
0.0315119
0.0321552
0.0704982
0.0784681
0.0733811
0.0926618
0.0845568
0.101429
0.100344
0.083214
0.0531024
0.0486199
0.0357392
0.0291949
0.0285247
0.0285191
0.0284468
0.0285276
0.0285242
0.0306807
0.0367447
0.014767
0.101203
0.0978633
0.0657966
0.0308211
0.0296417
0.0411903
0.0480186
0.0763474
0.0763832
0.0895377
0.103116
0.116897
0.172869
0.133152
0.121271
0.117906
0.0368345
0.0303929
0.0301655
0.0298552
0.0289215
0.0290473
0.0336181
0.0408108
0.0102377
0.14047
0.119482
0.0727196
0.0310546
0.0293081
0.0299467
0.0315741
0.0321395
0.0451049
0.0617295
0.0738783
0.0371728
0.0384051
0.0458756
0.0499363
0.0503038
0.0322112
0.0323873
0.0320615
0.0303847
0.0296004
0.0312781
0.0398601
0.0495348
0.00516046
0.197607
0.149268
0.0814161
0.0326865
0.0304917
0.0301424
0.0301608
0.0297901
0.0308355
0.0345816
0.0366012
0.0312333
0.0295774
0.0292221
0.0292391
0.0290338
0.0288776
0.031685
0.0312522
0.0335387
0.035226
0.0393151
0.0532084
0.0937638
0.023471
0.289604
0.208046
0.08731
0.0362377
0.0329624
0.0313333
0.0301924
0.0297562
0.030683
0.0330731
0.0451938
0.0361544
0.0340865
0.0299636
0.0294574
0.0290797
0.029171
0.0299736
0.0301269
0.03038
0.0322328
0.0488089
0.136574
0.245362
0.027293
0.325506
0.187211
0.101832
0.069441
0.0768603
0.111962
0.220269
0.262787
0.248058
0.238325
0.255315
0.261746
0.268451
0.270719
0.238139
0.233298
0.286445
0.277968
0.277853
0.272419
0.254097
0.353891
0.33688
0.364492
0.0282203
0.217125
0.198923
0.100129
0.0675706
0.067403
0.098221
0.147065
0.166822
0.223801
0.254775
0.324899
0.543714
1.02859
1.10343
0.693263
0.954666
0.756784
0.431902
0.476031
0.612257
0.586099
0.464906
0.303895
0.275386
0.0328029
0.12886
0.283307
0.180476
0.111313
0.101517
0.25268
0.489574
0.674334
0.729945
0.656669
0.556897
0.551288
0.65142
0.96786
1.12937
1.37234
1.21817
0.675185
0.782378
0.683622
0.620761
0.403848
0.218348
0.190456
0.0296365
0.0334239
0.229189
0.220117
0.166739
0.1518
0.211921
0.52931
0.446803
0.696746
0.648853
0.580756
0.535119
0.550862
0.630252
0.630203
0.758513
0.784976
0.511321
0.639326
0.642265
0.472857
0.292512
0.165452
0.147163
0.0293171
0.0343093
0.104277
0.218083
0.189021
0.161695
0.137819
0.137088
0.122929
0.113073
0.112981
0.119655
0.119967
0.121375
0.125351
0.128568
0.167254
0.244041
0.378171
0.516087
0.504936
0.364212
0.229125
0.12929
0.11905
0.0308255
0.0552284
0.313327
0.447793
0.43576
0.444336
0.421693
0.44554
0.446155
0.421071
0.400132
0.384407
0.369996
0.362781
0.361029
0.356493
0.348724
0.345227
0.341551
0.339244
0.326791
0.292844
0.245312
0.196748
0.196867
0.0298586
0.0388792
0.119204
0.112086
0.22616
0.616523
0.932916
1.36907
1.4749
1.54835
1.57802
1.59727
1.58492
1.60271
1.70916
1.54822
1.58982
1.69848
1.65737
1.5865
1.50639
1.2766
0.756893
0.507132
0.477625
0.029817
0.0361327
0.0773736
0.0563438
0.0335365
0.0329153
0.0334188
0.0353491
0.0360062
0.0359817
0.0366783
0.0374365
0.0395835
0.041069
0.0423051
0.0435452
0.0445595
0.0442824
0.0442225
0.0443002
0.0444627
0.0439986
0.0717064
0.0942634
0.157132
0.0298005
0.0357467
0.0594592
0.0464211
0.0303012
0.0298655
0.0293814
0.0294038
0.0300588
0.0297252
0.0292797
0.0292036
0.0289401
0.0286691
0.0286446
0.0284443
0.0285007
0.0283257
0.0283742
0.0284172
0.0284832
0.0285968
0.0297808
0.0321307
0.0441059
0.0294047
0.0338461
0.0533004
0.0424366
0.0297863
0.0301101
0.0308259
0.0350674
0.0346053
0.0314452
0.0297314
0.0295747
0.0294128
0.0290196
0.0287248
0.0285298
0.0284747
0.0284776
0.0284379
0.0283923
0.0284802
0.0285598
0.0283913
0.0277336
0.0296913
0.0292871
0.0323461
0.0469365
0.0439728
0.0336687
0.0348502
0.0468918
0.426245
0.257785
0.107087
0.06711
0.049669
0.0387575
0.0303536
0.0289696
0.02855
0.0284904
0.028356
0.0284149
0.0283646
0.0284573
0.0284892
0.0281546
0.0265207
0.0269115
0.0293824
0.0331086
0.0469171
0.0442141
0.0339287
0.0393077
0.0712759
0.62813
0.436091
0.0414394
0.0294894
0.0286418
0.0285131
0.0284984
0.0284031
0.02837
0.0284171
0.0284382
0.0280511
0.026214
0.0260524
0.0295754
0.035582
0.0513975
0.0445377
0.0322609
0.038748
0.0985336
1.30898
0.25543
0.0387512
0.0298022
0.0286707
0.028496
0.028341
0.0283453
0.0283451
0.0283968
0.0284271
0.0281128
0.0261485
0.0256472
0.0294749
0.0423353
0.0600568
0.0476958
0.0321757
0.0353966
0.101069
0.824883
0.165449
0.0354385
0.0293933
0.0285597
0.0283867
0.0284437
0.0283913
0.0284452
0.028403
0.0284513
0.0281077
0.0261468
0.0257357
0.0307477
0.0547055
0.0691749
0.0506793
0.0313825
0.0313409
0.0396659
0.16569
0.137949
0.176152
0.472035
0.898127
0.112251
0.0326117
0.0290294
0.028637
0.0284465
0.0283953
0.0283762
0.0284503
0.0283847
0.0284025
0.028095
0.0262887
0.0262251
0.0279555
0.0749771
0.0838817
0.0586338
0.030812
0.0302883
0.0325419
0.0359768
0.0322249
0.0322707
0.0323982
0.0385083
0.0335818
0.0306445
0.0296523
0.0291556
0.0288104
0.0284827
0.0283822
0.0284872
0.028415
0.0284778
0.0281976
0.0266761
0.0272629
0.0159779
0.100347
0.0966266
0.0655303
0.0306438
0.0294183
0.0302709
0.0317114
0.0308296
0.0316314
0.0318933
0.0317621
0.0309898
0.0309706
0.0313753
0.0303189
0.0314842
0.0288164
0.0284997
0.0285173
0.0283745
0.0284586
0.0283021
0.0281776
0.0301469
0.0133213
0.140491
0.117744
0.072536
0.0311267
0.0294743
0.0296601
0.0299577
0.0297344
0.0304081
0.0313053
0.0310404
0.029514
0.0289552
0.0290157
0.0288854
0.0292261
0.0285353
0.0285351
0.0284614
0.028494
0.0285984
0.0290568
0.0319124
0.0398703
0.00608711
0.20144
0.1525
0.0825958
0.0324301
0.0305685
0.0302413
0.0299297
0.0296404
0.029746
0.0301703
0.0294377
0.028661
0.0285688
0.0285554
0.0284941
0.0284903
0.0285391
0.028524
0.0284327
0.0286589
0.0288291
0.0308404
0.0439439
0.0855042
0.0237455
0.292907
0.209656
0.0879934
0.0362198
0.0329582
0.0312752
0.0301873
0.0296639
0.0301028
0.0305572
0.0307213
0.0294986
0.0290227
0.0289809
0.0289773
0.0290552
0.0290501
0.0293497
0.0293727
0.0294239
0.0298757
0.0485734
0.178402
0.230044
0.0279861
0.335985
0.18993
0.10127
0.0694605
0.0757932
0.107259
0.198267
0.272143
0.28256
0.290225
0.321537
0.34607
0.397938
0.444266
0.368378
0.369891
0.409689
0.415061
0.435338
0.415606
0.362141
0.424361
0.353084
0.330122
0.0282129
0.22871
0.20225
0.10223
0.0738468
0.0689464
0.0922637
0.113881
0.149194
0.158785
0.179991
0.218447
0.267246
0.427851
0.462323
0.543045
0.758353
0.706365
0.675841
0.586175
0.428955
0.29035
0.216715
0.162529
0.172207
0.0334307
0.134861
0.288539
0.184475
0.104431
0.0940668
0.121629
0.159118
0.361328
0.400254
0.435064
0.378021
0.403563
0.416486
0.439348
0.448098
0.609836
0.6002
0.656077
0.628527
0.447666
0.328564
0.232915
0.146066
0.132815
0.0298791
0.0359344
0.224349
0.224532
0.177464
0.136504
0.139401
0.122647
0.230446
0.207636
0.336809
0.340875
0.342145
0.291948
0.28102
0.22629
0.276091
0.342853
0.409126
0.415606
0.375313
0.271149
0.179424
0.112134
0.104391
0.0294939
0.0328728
0.101376
0.222552
0.18928
0.146156
0.114267
0.0855787
0.0701552
0.0668327
0.0668301
0.0721911
0.0744451
0.0739098
0.0699251
0.0677936
0.0771539
0.119762
0.176746
0.26971
0.219571
0.152737
0.109041
0.0821615
0.0829612
0.0301107
0.0432913
0.360123
0.443036
0.424253
0.451613
0.440181
0.44161
0.442605
0.42737
0.409163
0.395753
0.38604
0.375228
0.367247
0.360931
0.352089
0.350312
0.346225
0.343843
0.329085
0.291976
0.244844
0.197538
0.199278
0.029702
0.0411907
0.120698
0.115287
0.231565
0.604006
1.02278
1.49432
1.60615
1.65261
1.67011
1.69066
1.68074
1.64509
1.71451
1.63294
1.69782
1.64454
1.57993
1.58424
1.4954
1.22223
0.766472
0.510312
0.477617
0.0294737
0.0370394
0.0784015
0.0543204
0.0330645
0.0319076
0.0335528
0.0352337
0.0360709
0.0367142
0.0372703
0.0387184
0.0398383
0.0415934
0.0418676
0.0429592
0.0441277
0.0437869
0.0445414
0.0440353
0.0434954
0.0438147
0.0694035
0.0979822
0.159528
0.0297982
0.0358137
0.0593569
0.046358
0.0302554
0.0290335
0.0289218
0.0291294
0.0295497
0.0293547
0.0288584
0.0287514
0.0286388
0.0285189
0.0286532
0.0284042
0.0284918
0.0283443
0.0283736
0.0284497
0.0284704
0.0287153
0.0297267
0.0318388
0.0436289
0.0294438
0.0336513
0.0527868
0.0419162
0.0295818
0.0290487
0.029427
0.0318331
0.0323035
0.0305237
0.0290847
0.0290512
0.0290555
0.0288515
0.0285914
0.0284429
0.0283875
0.0284126
0.0284026
0.0283875
0.02841
0.028635
0.0283947
0.0271718
0.0282881
0.0292882
0.0325778
0.0461782
0.0418359
0.0303368
0.0307944
0.0374572
0.27857
0.173072
0.119868
0.0682536
0.0504307
0.0365279
0.0297856
0.0287784
0.028465
0.02844
0.0283187
0.0283439
0.0283465
0.0284389
0.0284166
0.0281857
0.0262315
0.0253316
0.029484
0.033351
0.0464621
0.0421149
0.0314097
0.0338663
0.0633505
1.00866
0.417678
0.0399319
0.0291936
0.02848
0.0284738
0.0285522
0.0283679
0.0283367
0.0284495
0.0283792
0.0280746
0.0261764
0.0244933
0.0295164
0.0352154
0.0501608
0.0440739
0.0317299
0.0351179
0.0825557
1.92422
0.370921
0.038655
0.0295243
0.0286158
0.0284791
0.0283882
0.0283636
0.0283208
0.0283097
0.0284009
0.0281204
0.0259888
0.0241355
0.0296876
0.041428
0.0584669
0.0466932
0.0316577
0.0336512
0.0832951
1.27058
0.224891
0.0354562
0.0292695
0.0285376
0.0284651
0.0283713
0.0282971
0.0284273
0.0283524
0.0284812
0.028083
0.0259757
0.0241647
0.0309156
0.0533307
0.0685067
0.0516328
0.0309079
0.0305489
0.0350974
0.10533
0.127055
0.163717
0.465555
0.800061
0.103196
0.0319344
0.0288114
0.0284895
0.0284178
0.0283923
0.0283543
0.0283663
0.0284273
0.0284153
0.0281169
0.0260627
0.0245383
0.0241283
0.0753146
0.0828852
0.0587835
0.0305666
0.0295371
0.0299186
0.0315538
0.0302872
0.0305436
0.0305775
0.0357594
0.0316108
0.0293907
0.0287407
0.0285125
0.0284428
0.02851
0.028353
0.0284524
0.0284275
0.0284149
0.028179
0.0263228
0.0255712
0.0169894
0.100773
0.0958922
0.0663848
0.0306408
0.0292876
0.0294055
0.0299727
0.029795
0.0295937
0.0293769
0.0294621
0.0293017
0.0288847
0.0285161
0.0283749
0.0284294
0.0283753
0.0283539
0.0284181
0.0283491
0.028405
0.028264
0.0272109
0.0283466
0.0149621
0.143899
0.120476
0.0749088
0.031223
0.0296289
0.0296408
0.0297761
0.0296121
0.0295612
0.0294805
0.0292056
0.0288833
0.0285661
0.028517
0.0282427
0.0283885
0.0283526
0.0283068
0.0284529
0.028424
0.0285176
0.0286097
0.0303467
0.0390944
0.0048677
0.205436
0.158681
0.0822781
0.0322812
0.0307313
0.0303207
0.0298926
0.0296383
0.0295864
0.0295223
0.0289332
0.0286231
0.0286356
0.0284955
0.0284103
0.028437
0.0284962
0.0283772
0.0284132
0.0284371
0.0285132
0.0300415
0.0439685
0.0933844
0.0244946
0.305403
0.210494
0.0879705
0.0365196
0.033071
0.0312865
0.0302345
0.0296606
0.0297201
0.029754
0.0294276
0.0289742
0.0289634
0.0289304
0.0289895
0.0291559
0.0291309
0.0293882
0.0294555
0.0294957
0.0299519
0.0499595
0.210157
0.243
0.0296564
0.358444
0.198757
0.102557
0.0702815
0.0765188
0.113678
0.176842
0.26569
0.303159
0.327668
0.377135
0.439427
0.4875
0.529058
0.548042
0.555856
0.547935
0.558971
0.5837
0.527211
0.430809
0.475415
0.351467
0.318811
0.0311485
0.238099
0.211077
0.104066
0.0739504
0.0706396
0.0871761
0.142863
0.154958
0.171618
0.167394
0.182732
0.192491
0.209988
0.213072
0.243413
0.29248
0.300664
0.400337
0.308322
0.216728
0.18228
0.171521
0.120567
0.131695
0.0342224
0.149043
0.253587
0.168765
0.104598
0.0903874
0.0985152
0.102671
0.126159
0.13276
0.135445
0.178019
0.150269
0.151994
0.143418
0.111589
0.173414
0.191907
0.255203
0.219229
0.169993
0.128234
0.0982372
0.0882101
0.0856887
0.0306324
0.0461079
0.210059
0.226574
0.165418
0.120501
0.0919775
0.0902145
0.0934202
0.0843243
0.0966786
0.107562
0.111911
0.105343
0.0939996
0.0730029
0.092184
0.0964502
0.121276
0.154644
0.120236
0.0922483
0.0822817
0.0787444
0.0742996
0.0298671
0.0336812
0.0961696
0.21114
0.187997
0.137355
0.0981642
0.0728363
0.0540474
0.0440312
0.0439647
0.0449722
0.0405765
0.0434153
0.0410867
0.0375572
0.043092
0.0550274
0.0688524
0.0841212
0.0830729
0.0751945
0.0695266
0.0686658
0.0657661
0.0303827
0.0464125
0.382146
0.458151
0.422742
0.455255
0.441784
0.440104
0.440647
0.428236
0.415138
0.404041
0.394292
0.385129
0.375253
0.370098
0.363425
0.360049
0.355192
0.347764
0.33417
0.295303
0.245911
0.200893
0.20683
0.0298032
0.0430643
0.12162
0.116278
0.234979
0.56861
1.04799
1.35191
1.64157
1.68529
1.73798
1.71616
1.69061
1.71159
1.7416
1.63932
1.70361
1.66869
1.61296
1.57511
1.53304
1.20968
0.762022
0.610581
0.509107
0.0295829
0.0383901
0.0800816
0.0544774
0.0332439
0.0316375
0.032768
0.0351597
0.0361428
0.0370624
0.0378161
0.0388022
0.040318
0.0416764
0.0421852
0.0431246
0.0440941
0.0435666
0.0440532
0.0435246
0.0433806
0.0433266
0.0674524
0.101426
0.167336
0.0299312
0.0353841
0.0590616
0.0462103
0.0305238
0.0289842
0.0287915
0.0290029
0.0292303
0.0291249
0.0286731
0.0286171
0.0284989
0.0284651
0.0286384
0.0283902
0.0284492
0.0283798
0.028363
0.0284023
0.0284296
0.0287534
0.0297068
0.0322581
0.0449787
0.0295885
0.0338677
0.0512977
0.0421902
0.0297626
0.0289449
0.0289639
0.0301099
0.0306047
0.0296966
0.0289089
0.0288931
0.0288471
0.0287398
0.0285698
0.0284689
0.0283142
0.0283441
0.0283781
0.0284459
0.0284784
0.0285592
0.0283648
0.0273432
0.0286447
0.0294883
0.033711
0.0468512
0.0420917
0.0303538
0.0299957
0.0325848
0.0790931
0.0770063
0.0511726
0.0403305
0.0340908
0.0310143
0.0291962
0.0286838
0.0284705
0.0283612
0.028339
0.0283775
0.0284173
0.0284585
0.0284591
0.0282484
0.02637
0.0256234
0.0298332
0.0341085
0.0467896
0.0413811
0.0309688
0.0321091
0.0456154
0.800222
0.205206
0.216057
0.24589
0.228921
0.0900417
0.0324353
0.0289542
0.0284904
0.0284206
0.0284611
0.0283498
0.0283224
0.028428
0.0283415
0.0280628
0.0261818
0.0248101
0.0294795
0.0359412
0.0499583
0.0441196
0.0312903
0.0327722
0.052422
0.955038
0.185243
0.232642
0.244363
0.269498
0.0925126
0.0335646
0.029243
0.0285644
0.0283731
0.0284405
0.0283267
0.0283031
0.0283448
0.0283598
0.0281282
0.0261176
0.0244852
0.0294586
0.0425238
0.0584705
0.0471333
0.0310102
0.0319234
0.0544741
0.51828
0.180169
0.23172
0.246165
0.325271
0.0776983
0.0324774
0.0290703
0.0284958
0.028469
0.0283757
0.0282556
0.0283245
0.0283467
0.0284228
0.0281134
0.0261309
0.0245205
0.0310972
0.0528164
0.0677555
0.0517798
0.0306199
0.0300089
0.0317317
0.0459515
0.0474377
0.0666643
0.0831187
0.115884
0.0460958
0.0304136
0.0288111
0.0284547
0.0283972
0.0283407
0.0283952
0.0283759
0.0284311
0.0283794
0.0281373
0.0262124
0.0248903
0.0264738
0.073182
0.0824469
0.0582324
0.0304483
0.0292491
0.0293716
0.0303032
0.029783
0.0297378
0.0294272
0.0312316
0.0301969
0.0290119
0.0286428
0.0284225
0.0283915
0.0284876
0.0284474
0.0283917
0.0284319
0.0283556
0.028129
0.0264364
0.0259044
0.0150709
0.104654