/*--------------------------------*- C++ -*----------------------------------*\
  =========                 |
  \\      /  F ield         | OpenFOAM: The Open Source CFD Toolbox
   \\    /   O peration     | Website:  https://openfoam.org
    \\  /    A nd           | Version:  6
     \\/     M anipulation  |
\*---------------------------------------------------------------------------*/
FoamFile
{
    version     2.0;
    format      ascii;
    class       volScalarField;
    location    "5";
    object      k;
}
// * * * * * * * * * * * * * * * * * * * * * * * * * * * * * * * * * * * * * //

dimensions      [0 2 -2 0 0 0 0];

internalField   nonuniform List<scalar> 
230684
(
1.38731
1.36966
2.35124
2.41598
1.82961
1.66894
1.72968
4.0057
3.62657
3.53648
3.64221
3.55324
3.52132
4.34019
4.4509
4.62681
4.65164
4.76581
4.9227
4.89684
4.82928
4.52764
4.24128
3.8783
3.63095
1.39112
1.35729
1.37842
1.43303
1.47117
1.43996
1.65193
3.37298
3.0703
3.07283
3.35535
4.26805
4.31015
5.65599
7.08286
7.02482
6.09469
6.40189
5.47196
6.5718
6.66132
5.70618
3.34813
3.72419
3.58789
1.39236
1.35852
1.34234
1.3201
2.26827
1.50894
1.46737
2.13543
1.73641
1.6423
1.60367
1.67369
1.66971
1.91303
1.84007
1.78219
1.76561
1.73443
1.79094
1.8463
1.6709
1.51191
1.8451
2.16728
2.02739
1.41597
1.26191
1.21107
1.45935
1.55988
1.60717
1.6869
1.64285
1.84303
1.94237
1.87075
1.75279
1.59841
1.53101
1.41275
1.67361
1.58165
1.72906
1.73655
1.72082
1.55281
1.56215
2.0011
2.30974
1.84509
1.42527
1.29097
1.266
1.24013
1.37125
1.55864
1.8025
2.15235
2.45807
2.19639
1.96831
1.8028
1.55625
1.55382
1.73051
1.68154
1.61426
1.70477
1.713
1.73182
1.71044
1.74357
2.37242
2.46929
1.93483
1.42609
1.28555
1.23479
1.18959
1.27263
1.33689
1.27692
1.31146
1.75828
1.69441
1.5988
1.51059
1.61924
1.53202
1.69521
1.83082
1.75342
1.79357
1.87584
1.81441
1.69535
1.69244
2.33485
2.53111
1.99946
1.42445
1.2866
1.23188
1.21443
3.07388
1.30494
1.21784
1.21187
1.31194
1.25277
1.217
1.31824
1.50224
1.59989
1.43876
1.62756
1.92851
1.85238
1.87715
1.83867
1.84934
1.85438
2.59743
2.65347
2.09063
1.41727
1.30791
1.27511
1.23688
1.36965
1.44196
1.54049
4.32083
1.43231
1.30898
1.26792
1.2889
1.41116
2.04961
1.63541
1.72293
1.88576
1.83505
1.97542
1.97102
1.89717
2.05386
2.70276
2.70926
2.14135
1.38911
1.35442
1.33171
1.2891
1.41761
1.52856
1.5527
1.80812
1.36061
1.27219
1.26165
1.30574
1.99199
1.68333
1.62054
1.7226
1.80978
2.02193
1.9542
1.94392
1.88251
1.83662
2.61688
2.72551
2.17191
1.3943
1.38195
1.32908
1.31731
1.45615
1.53232
1.41738
1.47239
1.74807
1.90115
1.52704
1.55157
2.33043
2.20517
2.11295
1.94231
1.83333
1.8223
1.9019
2.08856
2.00867
2.11034
2.73088
2.75475
2.18316
1.40215
1.42583
1.40286
1.33805
1.41578
1.47772
1.31732
1.33339
1.27513
1.27153
1.28353
1.49407
1.30792
1.73298
1.38361
1.58431
1.8873
1.95672
1.85424
1.88045
1.87791
1.90321
2.63169
2.59437
2.04649
1.41779
1.49022
1.48797
1.3947
1.4095
1.65959
1.45125
1.49354
1.39179
1.27963
1.30652
1.28785
1.21277
1.21589
1.21192
1.22588
1.24871
1.73007
1.68534
1.55795
1.80397
1.70531
2.27371
2.25459
1.80733
1.41788
1.55361
1.56872
1.43553
1.44281
1.43622
1.45027
2.18607
1.37806
1.37392
1.43005
1.50521
1.90066
1.44265
1.67181
1.57617
1.84774
1.9223
2.20938
1.40022
1.56789
1.70325
2.06263
1.68031
1.72879
1.40335
1.61006
1.70422
1.4781
1.47901
1.48857
1.46463
1.47327
1.52474
1.60928
1.75408
1.55212
1.56622
1.64485
1.81117
1.55626
1.74389
2.26141
2.31081
1.66183
1.93093
1.3812
1.44475
1.53464
1.69769
1.39556
1.73064
1.7944
1.53396
1.45167
1.48231
1.47376
1.50323
1.50719
1.65345
1.63084
3.05164
1.51398
1.53235
2.34537
1.97132
1.63589
2.11064
1.78778
1.56495
1.64262
1.68446
1.84277
1.55318
1.94928
1.39857
1.77264
1.80545
1.67875
1.73625
1.73689
1.76936
1.75
1.97591
1.77557
1.45351
2.82512
1.60355
1.62962
1.54438
1.44801
1.3168
2.40763
1.66037
1.46853
1.42816
1.43086
1.47876
2.74263
2.7892
1.40551
1.76553
2.13535
1.89665
1.75396
1.72226
1.54676
1.46446
1.81387
1.60313
1.40037
2.0336
1.62472
1.56509
1.59132
1.35276
1.32693
1.55555
1.42037
1.52335
1.71341
1.87996
2.27297
3.35178
3.63275
1.39285
1.44671
2.03835
1.9939
1.83617
1.60249
1.49022
1.65477
1.76217
2.17106
1.56408
1.32637
1.31453
1.47274
1.66069
1.37101
1.58984
1.63716
1.54809
1.42939
1.44457
3.57415
3.75179
2.89733
2.75659
1.41975
1.28984
1.68155
1.83041
1.80552
1.72454
1.62664
1.63231
2.15226
3.02214
1.99184
3.61756
1.43074
3.0277
1.99576
1.68956
1.54836
1.67533
1.58435
2.00886
2.54674
2.80275
2.81243
2.32383
2.21714
1.43726
1.26656
1.49898
1.69428
1.77614
1.743
1.79171
1.91024
2.05951
2.03303
1.91259
1.82879
1.66657
2.25533
2.07393
1.87056
1.70252
1.52145
1.51458
1.85707
3.06487
2.56135
2.22413
1.85089
1.82746
1.43138
2.07168
6.14787
6.93389
5.0743
4.05955
4.89498
6.96265
6.99908
6.66463
6.90872
6.89111
7.4132
8.29697
8.79453
10.3359
9.97676
11.267
12.1497
12.1349
12.1471
11.3394
10.7786
9.2332
9.30801
1.47917
1.79873
3.17298
3.23312
5.03754
3.58495
2.28583
7.13869
9.33193
11.8654
13.6224
16.3984
17.6952
21.0169
22.1537
22.581
22.5089
22.8193
23.0786
22.2591
22.5065
19.7527
14.0636
11.6633
10.1587
1.48433
1.86218
2.79041
2.90139
6.42692
5.21702
2.58739
3.39149
3.62848
4.57956
4.64366
4.35059
3.83456
3.91831
3.8953
3.90868
4.02069
4.03675
3.87433
3.63586
3.41166
3.26768
4.14376
1.48665
1.71556
2.169
2.27081
4.92633
3.31166
3.10002
3.35238
3.88341
4.90614
2.21806
2.16481
3.31231
3.72518
3.82075
3.96308
3.76784
3.93009
3.83747
3.02114
2.71551
1.45804
1.53944
2.19274
2.39022
3.93253
5.49882
3.44277
3.58331
3.36417
3.43789
3.35893
3.45711
2.38375
2.99751
3.72845
3.70722
3.95076
3.88838
4.16243
4.1812
3.15803
2.68631
1.46625
1.52601
2.1444
2.66562
5.42099
3.56126
2.97598
3.31181
4.4491
3.78477
3.03744
2.06831
3.01991
3.74853
4.08684
4.07189
4.15689
4.11295
4.12732
3.32456
2.85118
1.46019
1.5312
2.05906
2.74606
4.38561
1.14068
2.51586
2.97707
3.30092
3.50482
3.66325
3.93244
4.02033
4.11234
4.23688
4.23386
4.21968
3.44851
3.03994
1.43748
1.65633
2.26111
2.42717
3.74066
3.27955
2.14187
2.90584
2.6665
2.47725
3.07761
3.67738
3.72499
4.00755
4.1572
4.09933
4.23722
4.44416
3.89613
3.5119
3.12585
1.43177
1.82298
2.47562
2.58438
3.07364
3.80873
5.14035
2.58531
2.40166
3.0705
3.65431
3.89655
4.04808
4.28331
4.29926
4.13422
4.45226
3.90397
3.61291
3.28465
1.48173
2.00822
2.63001
2.80732
2.97351
3.40544
3.63455
3.8985
4.11995
2.48609
2.01744
1.61504
6.56613
3.29494
3.05593
3.45174
3.64747
3.88192
4.12934
4.17043
4.3479
4.43496
4.04348
3.88933
3.45983
1.52343
2.36086
2.87521
2.93136
3.16069
2.19896
5.15954
1.57108
3.188
2.45061
2.19545
2.54007
2.94571
3.256
3.50088
4.05381
4.29392
4.23107
3.69416
3.64267
3.19478
1.54328
2.8171
3.12873
3.02925
2.94211
3.38823
3.70703
2.18298
1.41527
1.76195
2.48911
4.05788
2.26309
2.52189
2.83655
3.03854
3.0786
2.66476
1.10897
3.42701
3.42996
3.29608
2.97234
3.78827
2.88413
4.46296
1.91972
3.16061
2.33565
1.77229
1.33127
3.75951
2.68156
2.12945
1.83519
2.7263
2.84622
3.0282
2.31083
0.996978
4.31757
4.05033
3.56282
2.98822
3.43603
3.40938
3.79933
3.79607
3.46344
3.43712
5.05382
3.71116
3.79261
2.65072
3.28139
2.74816
3.36252
5.64032
4.59615
3.84789
1.77112
2.24061
0.793213
5.63007
4.68391
3.66208
3.12676
3.41562
3.47616
3.58336
3.67205
3.72506
3.77496
5.57539
3.15812
4.55216
3.06787
3.91992
3.78808
3.67398
4.19913
3.15855
2.05062
3.3502
2.39349
3.89758
0.899097
5.99337
4.73318
3.62668
3.39094
3.50317
3.81894
4.68091
6.57869
5.064
3.97796
4.22504
2.88206
3.26612
3.7505
3.67034
2.80103
6.85177
7.26377
1.48822
4.29835
4.87556
3.05445
2.4772
2.61361
2.67157
2.71376
3.83911
3.85814
4.31331
6.86605
0.602404
1.44201
4.96923
2.72122
3.22467
2.9782
4.55203
9.21008
10.0318
9.0562
1.51365
2.7557
5.5623
4.54108
3.26809
2.9695
4.97172
7.02299
4.67596
4.95459
3.88527
3.45215
4.67179
3.71757
2.25079
3.31352
7.04958
4.70739
2.88115
10.7867
10.1655
6.79367
5.92215
1.48107
1.61523
4.37308
4.48645
3.70945
3.05131
6.02441
3.03847
6.00152
6.94678
5.69418
8.71661
4.71085
6.54914
6.12016
5.67909
11.3462
7.45394
5.93851
7.10198
6.83415
4.75813
4.49189
1.47646
1.59865
3.25459
4.46506
4.11232
3.80465
4.22344
4.42085
4.10039
3.61767
3.37566
3.72498
4.82761
3.56854
3.32236
3.13572
3.25113
7.93633
4.20442
5.29327
4.92319
4.3925
4.10539
3.15234
3.17024
1.51945
2.30199
7.36307
8.13224
6.00523
4.29824
4.12804
9.22027
9.28945
8.57679
7.93598
7.53492
7.32783
7.24408
7.43557
7.67517
7.70068
7.81398
8.01265
8.01976
7.8335
7.41667
6.89362
6.2175
6.31371
1.51935
1.9278
3.76159
3.66648
6.2748
5.53438
6.45452
10.4738
13.2326
15.1328
17.1032
19.4796
20.2204
21.5143
22.764
23.4589
23.1658
22.8367
23.3326
23.1457
22.6506
20.2026
13.4169
11.8214
10.2169
1.48953
1.84398
2.86442
2.4086
3.70173
2.41909
2.09161
2.52307
1.70877
1.654
1.69009
1.83072
1.89666
1.9707
1.85428
1.88879
1.87867
1.87042
1.87003
1.87329
1.86966
1.85103
2.47339
3.21035
4.35222
1.51435
1.77289
2.3492
1.98806
2.40929
2.45424
2.0151
1.82028
1.61587
1.5626
1.84144
2.69774
2.37623
2.62416
1.64206
1.52749
1.52427
1.53577
1.54393
1.54791
1.54918
1.55514
1.6745
1.88946
2.27305
1.49545
1.62516
2.31183
1.93881
2.17888
3.21188
2.26447
2.20085
1.77795
1.63422
1.83493
3.48502
2.39497
2.56414
2.18231
1.56749
1.50991
1.53879
1.54575
1.55012
1.55296
1.55323
1.65319
1.79146
2.104
1.49073
1.60451
2.21687
2.29796
4.48535
3.95155
1.94027
2.24876
2.20792
2.0896
1.87596
1.86463
1.59743
1.5098
1.5412
1.54704
1.55422
1.55493
1.55292
1.64173
1.73762
2.0945
1.49248
1.61818
2.16499
2.39773
10.1317
2.53873
4.41322
1.80544
1.58485
1.53335
1.52947
1.54221
1.5555
1.55224
1.55741
1.55618
1.63277
1.70599
2.09755
1.47682
1.76675
2.3416
1.9339
1.92048
2.39516
2.33012
2.41998
2.80091
1.68291
1.55588
1.53643
1.5386
1.54361
1.55199
1.55344
1.55795
1.55723
1.61146
1.70672
2.073
1.47664
1.90613
2.54947
2.00915
1.61777
1.77424
3.41525
1.39612
2.40812
1.66577
1.54753
1.53693
1.53965
1.5464
1.55087
1.55717
1.55291
1.55515
1.6106
1.71087
2.11572
1.52436
2.22634
2.75841
2.13255
1.59102
1.62996
2.58141
3.78802
2.82178
2.54143
5.06114
5.76837
3.48114
1.75425
1.53979
1.54097
1.53797
1.54093
1.54582
1.55433
1.55726
1.55612
1.61079
1.75533
2.204
1.58169
2.70384
3.10484
2.27878
1.71519
1.91758
7.2541
2.16105
1.76696
1.97304
2.42887
2.06747
3.93167
3.73273
2.6783
2.66709
2.00686
1.57906
1.55017
1.56343
1.56697
1.55742
1.6029
1.7969
2.2283
1.23888
3.30521
3.31718
2.40399
1.58488
1.60063
4.01629
2.95819
2.39439
1.91855
1.79661
2.06407
1.5249
1.43696
1.81992
1.43152
3.02947
1.81023
2.01753
1.84694
1.84733
1.6048
1.60773
1.8624
2.14339
1.14395
3.89898
3.73975
2.57391
1.56045
1.57272
1.62481
2.10486
2.14451
4.21858
2.09244
3.71158
1.89306
2.16791
2.62911
2.43432
2.9362
1.79876
2.60555
2.15758
1.74999
1.63355
1.68984
1.97313
2.01573
1.03754
4.94952
4.26644
2.81434
1.61488
1.56793
1.57429
1.63557
1.61527
1.79474
2.01047
2.81668
1.91697
1.84773
1.64598
1.67905
1.60096
1.59298
2.52648
2.11636
2.47416
2.01396
2.16679
2.17792
3.06039
0.860392
6.32466
5.04273
2.93246
1.74576
1.65036
1.61173
1.59313
1.58795
1.6319
1.79202
4.76011
2.44206
2.4654
1.78482
1.63556
1.57857
1.56425
1.71835
1.76823
1.75527
1.97638
2.17349
3.97769
5.72499
0.703285
7.0379
4.95659
3.38566
2.71087
2.87702
3.69999
5.95943
6.32018
5.22712
4.38923
4.09644
3.02061
3.82488
5.77931
3.59052
3.55173
5.63339
5.80561
5.25973
4.98174
4.65287
6.09148
10.4228
9.41704
1.42836
5.04065
5.35685
3.15943
2.46543
2.64923
2.74411
3.4499
3.99716
4.17126
5.01774
7.8304
6.58167
8.16555
9.4125
5.39614
6.34525
10.4216
7.20397
7.52534
9.20283
11.208
13.3962
11.954
9.59696
1.41917
3.52901
5.12713
4.21375
3.43232
3.03286
7.9
5.72108
5.50114
10.2804
7.86446
5.34358
6.23477
11.8381
18.7036
17.2782
15.1302
16.3337
5.65106
7.2403
11.561
15.2935
12.2612
7.48474
6.28915
1.48206
1.73854
5.15171
5.76813
4.44075
4.07036
7.32799
5.01959
9.67801
8.76874
7.69262
6.46535
8.25496
11.3735
12.0803
12.67
13.8338
15.1775
5.59331
7.95911
12.0081
11.6269
8.70002
5.50592
4.93208
1.44736
1.63901
3.88821
5.41723
5.00592
4.52687
4.29805
4.58462
4.12073
3.59214
3.36422
3.40216
3.71814
3.98947
4.40335
4.43639
5.10839
7.67994
8.9832
8.83674
9.39661
8.38165
6.194
4.16236
3.89308
1.56274
2.53769
7.5314
9.05592
7.99841
7.36887
8.10173
9.9786
9.55028
8.6355
7.98036
7.53191
7.37555
7.15582
7.05758
7.08208
6.92775
6.84148
6.73608
6.64276
6.35059
5.96283
5.43978
4.79153
5.09997
1.52501
1.96732
3.95696
3.71677
5.8875
9.9374
13.1714
16.3065
17.6286
18.1182
18.8456
20.3804
21.8273
22.1251
22.3245
22.9793
22.8743
22.6543
22.2464
21.833
21.488
18.6698
13.8931
9.78598
9.23274
1.47028
1.83506
2.90378
2.30628
1.82388
1.80522
1.70976
1.79939
1.67399
1.62859
1.63557
1.68114
1.72951
1.74628
1.7624
1.7942
1.80425
1.78815
1.78984
1.78051
1.78231
1.76677
2.403
2.97888
4.13964
1.47707
1.71244
2.41994
2.00356
1.64749
1.73435
1.56271
1.53984
1.53964
1.52189
1.55117
1.63913
1.56762
1.56379
1.48715
1.47325
1.47027
1.46477
1.46526
1.4671
1.46823
1.47334
1.52552
1.6317
1.98436
1.49939
1.66343
2.29624
1.89438
1.64717
1.8089
1.70381
1.96388
1.71747
1.58928
1.587
1.73841
1.58566
1.56811
1.53892
1.47984
1.46747
1.46732
1.46641
1.46609
1.47078
1.4678
1.47642
1.51121
1.63235
1.49509
1.61387
2.13285
2.02649
2.90177
2.35403
2.61662
5.98296
3.47942
2.01887
2.15826
1.81459
1.7585
1.55756
1.51523
1.47873
1.46974
1.46516
1.46726
1.46704
1.46693
1.46901
1.46775
1.46894
1.55033
1.4974
1.64443
2.11434
2.01691
3.08815
2.46569
2.96161
4.17871
4.34399
1.72299
1.505
1.4725
1.46701
1.46669
1.46852
1.4622
1.46718
1.46568
1.46486
1.45199
1.52134
1.47829
1.73701
2.28864
1.90739
1.63442
2.00584
3.21632
1.63001
2.67219
1.67953
1.50871
1.47393
1.46775
1.46531
1.46635
1.46426
1.46717
1.4666
1.46353
1.44693
1.50298
1.50137
1.94696
2.46835
1.98762
1.59057
1.7279
3.36616
1.37292
2.33318
1.63617
1.50014
1.47274
1.46616
1.46648
1.46555
1.46737
1.46542
1.46686
1.46461
1.4495
1.51594
1.53825
2.26002
2.68156
2.0809
1.56667
1.58368
2.08324
3.47686
2.48975
2.49855
4.71038
5.44555
2.84556
1.60169
1.48998
1.4713
1.46936
1.46728
1.46695
1.46665
1.46638
1.46593
1.46474
1.4643
1.54083
1.37757
2.79835
3.06432
2.26472
1.55001
1.58026
2.55232
2.29456
2.06595
2.22891
2.16021
2.51748
2.4498
2.14859
1.82225
1.74693
1.58684
1.4766
1.46892
1.46852
1.46645
1.46909
1.46864
1.4909
1.59451
1.23141
3.34947
3.33961
2.37789
1.52721
1.50102
1.82691
1.84037
2.02822
1.95213
2.16416
2.42784
2.44644
2.89872
2.65015
2.44714
2.49213
1.55926
1.51643
1.49908
1.48945
1.47512
1.48501
1.54586
1.65071
1.18438
4.05889
3.72352
2.563
1.53585
1.49154
1.51198
1.55371
1.5616
1.86748
1.97451
2.07893
1.58539
1.64969
1.7679
1.74502
1.77592
1.51905
1.57569
1.52908
1.50135
1.4915
1.5402
1.66254
1.84453
1.16688
5.15822
4.34653
2.76187
1.59
1.52958
1.51773
1.51851
1.50624
1.54043
1.61127
1.63655
1.5251
1.4932
1.48634
1.48547
1.48193
1.47976
1.55326
1.51202
1.57248
1.56575
1.64633
1.96492
2.85702
1.02323
6.6585
5.35085
2.92575
1.7173
1.60976
1.55699
1.52007
1.50615
1.53695
1.60912
1.92257
1.6414
1.57849
1.50101
1.49467
1.48456
1.48822
1.51243
1.50998
1.51656
1.53788
2.0079
3.52631
5.86939
0.804975
7.16697
5.171
3.35766
2.61418
2.84747
3.7276
5.98947
6.41212
5.69281
5.56526
5.79602
6.13454
6.10517
6.40607
5.46544
5.9909
6.74591
6.64812
6.75597
6.57128
6.26307
7.94199
8.04556
8.37231
1.5964
5.30216
5.41899
3.22928
2.66062
2.65386
3.46477
4.12342
4.62712
5.49196
6.07363
7.6481
11.5382
17.2623
18.6839
13.2228
16.4571
14.0152
9.3132
9.97493
11.5109
11.3901
9.80203
7.45846
6.95218
1.59949
3.96607
6.19203
4.79102
3.47771
3.44257
6.28881
9.7028
12.2632
13.4398
12.2353
10.4553
10.4678
12.6026
19.4615
19.7661
21.9933
20.259
12.5165
14.3767
13.2633
12.8521
9.08613
5.65116
5.26651
1.5151
1.83056
5.51886
5.9253
4.41088
4.0891
4.99423
10.3582
8.90353
9.51915
10.6089
9.69767
9.62494
10.2857
11.4659
11.9869
14.4496
14.9948
12.1556
12.6136
13.0991
9.82687
7.70717
5.31174
4.71798
1.44076
1.64548
4.10726
5.92654
5.46626
4.72276
4.52132
4.27115
3.44352
3.20591
3.19032
3.29433
3.29264
3.26147
3.13388
3.56325
4.54349
5.99845
10.1875
10.52
9.7793
7.3061
5.26396
3.77936
3.68543
1.55532
2.48296
7.93922
9.53295
9.5454
9.59397
9.02023
8.9463
8.72957
8.14035
7.74926
7.47559
7.22845
7.06588
6.98943
7.02285
6.75569
6.66436
6.52117
6.46794
6.31065
5.85989
5.22122
4.60263
4.7394
1.52536
1.90562
4.03166
3.66189
5.8001
11.0906
16.8379
19.4682
20.8924
21.0524
21.0431
22.4079
22.4119
22.8023
22.9325
23.5804
22.3125
21.7692
21.9035
21.476
21.5807
18.0891
13.8165
9.79646
9.21738
1.50622
1.80784
2.88324
2.22089
1.6143
1.59603
1.6147
1.64655
1.65498
1.64281
1.64427
1.68146
1.70147
1.73403
1.75094
1.78816
1.79129
1.77004
1.77297
1.75994
1.78749
1.77764
2.45951
2.97869
4.15208
1.5121
1.76491
2.44687
1.95832
1.51575
1.50875
1.49318
1.495
1.51472
1.50468
1.49146
1.48922
1.48073
1.47264
1.47298
1.46652
1.4682
1.46317
1.46502
1.46624
1.46824
1.47202
1.51761
1.58826
1.91175
1.50066
1.71464
2.3273
1.87307
1.50217
1.51693
1.53912
1.68184
1.6408
1.55591
1.50438
1.50051
1.49527
1.48302
1.47472
1.46951
1.46776
1.46713
1.46712
1.46572
1.46789
1.47015
1.46792
1.46202
1.52298
1.49732
1.6275
2.09971
1.87346
1.61782
1.65407
1.95268
5.34318
2.91663
2.04847
2.12174
1.768
1.68459
1.52036
1.48136
1.46927
1.46863
1.46497
1.46642
1.46501
1.46811
1.4677
1.46035
1.41486
1.42358
1.49769
1.65158
2.09364
1.87819
1.62165
1.78732
2.60946
4.01963
4.00767
1.69649
1.49556
1.47146
1.46833
1.46868
1.46564
1.46428
1.46686
1.46594
1.458
1.40425
1.39046
1.47553
1.75425
2.25858
1.89531
1.57727
1.78817
3.11569
1.6435
3.31807
1.70051
1.50547
1.47277
1.46887
1.46455
1.46497
1.4632
1.46611
1.46608
1.45567
1.40207
1.38051
1.52853
1.95732
2.40957
1.9779
1.57478
1.69231
3.22054
1.346
2.85356
1.6404
1.49356
1.47007
1.46536
1.46653
1.46501
1.46762
1.46571
1.46718
1.45558
1.40344
1.38541
1.54686
2.26927
2.64138
2.06453
1.5477
1.55897
1.80565
3.05191
2.28322
1.89894
2.2444
5.32357
2.69803
1.57496
1.48321
1.47202
1.46746
1.46589
1.4652
1.46736
1.46526
1.4653
1.45883
1.40873
1.39909
1.18929
2.8963
3.0392
2.25644
1.5297
1.52146
1.5998
1.68082
1.56083
1.55615
1.55133
1.72641
1.6074
1.52244
1.49711
1.48274
1.47523
1.46783
1.46582
1.4684
1.46642
1.46746
1.46094
1.42151
1.43511
1.23852
3.43817
3.36946
2.39013
1.52122
1.49445
1.52421
1.55992
1.52656
1.5463
1.55654
1.55169
1.52369
1.51652
1.52634
1.50001
1.53197
1.473
1.46891
1.46923
1.46505
1.46755
1.46697
1.469
1.52011
1.25638
4.21582
3.75774
2.56319
1.53752
1.49635
1.5029
1.51124
1.50473
1.52835
1.54905
1.53598
1.49535
1.4803
1.48131
1.47442
1.48539
1.46862
1.47001
1.46752
1.46834
1.47124
1.49228
1.5718
1.78943
1.20796
5.32103
4.49523
2.79644
1.5836
1.53254
1.52121
1.51062
1.50214
1.50681
1.51771
1.49524
1.47226
1.47067
1.47044
1.46811
1.46892
1.47038
1.47
1.46599
1.47302
1.47775
1.54652
1.87377
2.8495
1.07639
6.73672
5.43295
2.93305
1.71716
1.6139
1.55451
1.51952
1.50352
1.51755
1.53103
1.53545
1.49828
1.48391
1.48272
1.48274
1.48474
1.48496
1.49285
1.49266
1.49464
1.50875
2.08255
4.0026
6.02992
0.815097
7.52767
5.10766
3.40591
2.69635
2.73763
3.6686
5.59411
6.65796
6.7364
6.89484
7.59805
7.775
8.39237
8.92986
8.56252
8.69937
9.0523
9.20575
9.28033
8.87669
7.99325
9.29437
8.23759
7.8785
1.57384
5.61999
5.45053
3.3166
2.7163
2.61354
3.21286
3.86308
3.8968
4.60759
4.67634
5.24622
7.65994
8.51453
10.4487
11.9761
14.2749
14.1623
12.6592
10.3031
8.89787
6.85599
5.63692
4.75703
4.97675
1.45055
4.14162
7.13609
5.23137
3.42613
3.19913
3.58617
5.474
8.17185
8.20018
9.10677
8.20078
8.00828
8.49299
9.53882
9.99422
12.2371
11.6915
13.019
12.3106
10.3946
7.95084
5.26906
4.64362
4.18586
1.4626
1.86532
5.83036
7.18357
5.51207
4.35322
4.03862
3.85451
5.71804
5.6334
6.83757
7.05103
6.91866
6.39064
5.65717
6.24607
6.80839
7.8922
9.27248
9.49265
8.33694
5.96118
4.51416
3.44934
3.46848
1.46577
1.60815
3.7985
6.27572
5.70405
4.71931
3.83249
3.22984
2.56544
2.46898
2.48511
2.5596
2.52435
2.4373
2.33553
2.30625
2.9405
3.67117
6.18064
6.29283
5.88244
4.83462
3.86707
3.06485
3.10058
1.54197
2.46703
8.35413
10.0619
9.75825
9.9757
9.34177
8.90352
8.65702
8.2965
7.94687
7.66186
7.51605
7.34245
7.05636
6.98656
6.71017
6.73615
6.66285
6.64919
6.44424
5.94577
5.27403
4.63996
4.90181
1.52016
1.87137
4.02472
3.7407
6.26206
11.8821
17.8273
20.3366
22.1028
22.8852
23.0348
23.3144
23.4495
23.9493
22.9842
23.615
22.3021
22.4369
22.1203
22.6013
21.8617
18.357
13.7229
11.4079
9.80633
1.51371
1.82877
2.92845
2.20475
1.60219
1.56766
1.59925
1.62412
1.64627
1.65372
1.66216
1.69138
1.70944
1.75368
1.73412
1.77686
1.77422
1.77412
1.7796
1.77425
1.78254
1.79026
2.39853
3.16338
4.33892
1.51408
1.74471
2.44114
1.95826
1.51308
1.48251
1.47883
1.48627
1.49943
1.49337
1.47847
1.47546
1.47313
1.46931
1.47264
1.46474
1.46826
1.46434
1.46556
1.4672
1.46681
1.47527
1.51604
1.59137
1.9188
1.50302
1.73543
2.34354
1.87369
1.49486
1.48275
1.49572
1.57675
1.57911
1.52749
1.48422
1.48455
1.48488
1.47825
1.47093
1.46634
1.46533
1.46516
1.46606
1.4657
1.4659
1.47236
1.46744
1.45284
1.50211
1.50033
1.64296
2.09247
1.82689
1.51761
1.53953
1.76764
4.07576
2.45296
2.25401
2.07176
1.78636
1.63268
1.50355
1.47547
1.46747
1.46676
1.46336
1.46346
1.46424
1.46688
1.4663
1.4614
1.40675
1.40218
1.50019
1.65504
2.07768
1.83189
1.54877
1.64088
2.37556
6.78323
3.51742
1.64465
1.48683
1.46809
1.46699
1.46946
1.46561
1.46416
1.46714
1.46566
1.45668
1.39954
1.36428
1.47849
1.74747
2.24539
1.88916
1.56415
1.68116
2.93604
2.34626
3.7493
1.67967
1.497
1.47223
1.46805
1.46436
1.4646
1.46288
1.46367
1.46603
1.45725
1.39819
1.35419
1.53262
1.96914
2.38648
1.96236
1.55653
1.63239
2.98791
1.97925
3.18552
1.62971
1.48984
1.46952
1.46749
1.46498
1.46305
1.46695
1.46478
1.4682
1.45651
1.40164
1.35794
1.51327
2.29973
2.62413
2.07798
1.53409
1.53087
1.68065
2.56902
2.20556
1.93038
2.33899
4.40472
2.40835
1.5533
1.47712
1.4683
1.4663
1.46547
1.46467
1.465
1.46676
1.46572
1.45765
1.40399
1.371
1.18298
2.88026
3.00001
2.24881
1.52118
1.49785
1.51105
1.55786
1.51727
1.52251
1.51179
1.65727
1.55772
1.49407
1.47534
1.46903
1.46697
1.46846
1.46495
1.46735
1.46683
1.46643
1.4594
1.40905
1.40858
1.29251
3.45822
3.36897
2.41187
1.52052
1.49016
1.49454
1.51234
1.50605
1.49983
1.49409
1.49736
1.49162
1.47907
1.46894
1.46492
1.46654
1.46533
1.46448
1.46654
1.46437
1.46518
1.46126
1.45309
1.50234
1.3415
4.3562
3.88025
2.63078
1.53939
1.50112
1.5022
1.5057
1.501
1.49963
1.49727
1.48913
1.4793
1.46923
1.46828
1.46079
1.46453
1.46476
1.46291
1.46759
1.46632
1.46883
1.4785
1.55158
1.81523
1.22034
5.45293
4.74225
2.80049
1.58038
1.53628
1.52369
1.50988
1.5022
1.50072
1.49861
1.48038
1.47131
1.47221
1.46838
1.46652
1.46763
1.46877
1.46479
1.46608
1.46756
1.46934
1.52317
1.90015
3.06063
1.16998
6.96751
5.39139
2.91881
1.72779
1.61752
1.55466
1.52148
1.50344
1.50564
1.50663
1.49689
1.4828
1.48227
1.48139
1.48252
1.48735
1.48614
1.49303
1.49386
1.49556
1.51033
2.10129
4.61974
6.28666
0.925788
8.01452
5.30471
3.41577
2.64579
2.81985
3.57516
5.63948
6.63486
7.07577
7.47892
8.05372
9.09008
9.14598
10.3953
10.5939
10.7509
11.0506
11.3022
11.7008
10.8046
9.13228
10.3124
8.24379
7.66849
1.65179
5.84072
5.63629
3.31184
2.67452
2.63782
3.20321
4.22675
4.61504
5.26742
4.98218
4.7087
5.80695
6.01159
6.05481
6.63303
7.74252
9.05339
9.20564
6.73152
7.56241
5.26699
5.08068
4.30861
4.20608
1.45737
4.22541
6.07109
4.46373
3.53213
3.13821
2.99623
3.70377
4.04433
4.07081
4.64675
4.66557
4.18299
4.13022
3.76196
4.15647
4.62335
5.07928
6.32811
4.9936
5.07076
4.03948
3.29487
3.26599
3.15534
1.5234
2.00012
5.65745
7.10011
5.63836
4.06431
3.34492
2.75161
3.11439
2.84855
2.83
3.60568
2.97888
2.90696
2.82585
2.81998
2.89172
3.01322
4.70557
3.94304
3.79521
3.07647
3.01036
2.94961
2.85963
1.50181
1.81103
4.20506
6.12194
6.15559
4.96935
3.78657
3.00408
2.3411
2.13523
2.03649
2.0334
1.88544
1.79556
1.77801
1.77552
1.88859
1.94562
3.09775
3.18361
2.75379
2.75393
2.69789
2.67566
2.63058
1.54385
2.5104
8.80073
10.4735
10.1203
10.2114
9.54052
9.02184
8.70328
8.30436
8.00332
7.83484
7.66507
7.4523
6.98123
7.13127
6.98903
6.98668
6.9901
6.83785
6.63174
6.07195
5.32733
4.70301
5.05367
1.52219
1.88054
3.95452
3.8277
6.5919
12.1266
17.6082
20.831
22.4562
23.5315
23.7649
23.7153
24.1446
24.0372
23.3743
23.9623
22.6445
22.9095
23.0919
22.0901
21.9368
18.283
13.4897
11.313
9.81947
1.51385
1.86983
2.97862
2.22675
1.60925
1.56257
1.58135
1.617
1.63954
1.66262
1.67059
1.68226
1.72665
1.7438
1.74215
1.77694
1.77162
1.77727
1.78793
1.7803
1.7758
1.79163
2.43848
3.12851
4.4304
1.51435
1.76436
2.40817
1.94214
1.52114
1.48019
1.47533
1.48224
1.48935
1.48648
1.47304
1.47235
1.46895
1.46773
1.47262
1.46459
1.46751
1.46564
1.46491
1.4659
1.46675
1.47596
1.5162
1.60316
1.95046
1.50982
1.72828
2.30053
1.87206
1.50005
1.47917
1.48047
1.51925
1.52953
1.5031
1.47964
1.47921
1.4788
1.47489
1.47044
1.46717
1.4632
1.46384
1.46485
1.46727
1.46688
1.46995
1.46753
1.46137
1.51962
1.5056
1.67622
2.08863
1.82115
1.51646
1.51302
1.60428
2.75328
2.1549
1.83788
1.65208
1.57703
1.53107
1.48787
1.47275
1.46728
1.46409
1.46395
1.46537
1.46635
1.46761
1.46654
1.46252
1.41755
1.41916
1.49681
1.68702
2.07799
1.81094
1.54061
1.57677
1.9551
7.56086
2.23054
1.97378
2.06144
2.30509
2.17705
1.55422
1.48048
1.46818
1.46569
1.4678
1.46435
1.46347
1.46583
1.46427
1.45757
1.40676
1.38304
1.47789
1.75086
2.22919
1.88596
1.54722
1.60409
2.1954
6.49926
2.14414
1.93359
1.92214
2.5007
2.44269
1.59594
1.48912
1.47056
1.46461
1.46709
1.46397
1.46261
1.46419
1.46444
1.45805
1.40609
1.37333
1.51625
1.95464
2.40746
1.96847
1.53819
1.57164
2.1213
4.60476
2.0576
1.93672
1.94727
3.00944
2.3086
1.57341
1.48423
1.46775
1.46765
1.46501
1.4617
1.46387
1.46455
1.46637
1.45714
1.40965
1.37622
1.54498
2.27948
2.63659
2.07882
1.52426
1.51224
1.57255
1.90612
1.72674
1.91408
1.97048
2.33359
1.80116
1.52045
1.47673
1.46737
1.46639
1.46404
1.46545
1.46539
1.46668
1.46527
1.4578
1.40952
1.38914
1.19657
2.79761
2.95754
2.22864
1.51735
1.48881
1.49354
1.5227
1.50462
1.50312
1.49149
1.54726
1.51842
1.48279
1.47267
1.4665
1.46527
1.46763
1.46684
1.46591
1.46712
1.46495
1.45839
1.41786
1.42616
1.28064
3.38085
3.29725
2.42873
1.52232
1.48977
1.48985
1.50037
1.49979
1.49231
1.48611
1.48831
1.48464
1.4741
1.46753
1.46354
1.46518
1.4648
1.46493
1.46467
1.46591
1.46588
1.45926
1.4615
1.52937
1.35204
4.2609
3.86739
2.6415
1.54431
1.50456
1.50204
1.50406
1.49987
1.49514
1.48951
1.48428
1.47727
1.46998
1.46744
1.46277
1.46436
1.4649
1.46516
1.46592
1.46725
1.46786
1.4754
1.56386
1.88625
1.22519
5.55041
4.64343
2.82567
1.58803
1.54017
1.5248
1.51313
1.50311
1.49827
1.49112
1.47839
1.47336
1.47047
1.46826
1.46533
1.4679
1.4689
1.46468
1.46665
1.46785
1.46918
1.51774
2.02748
3.27579
1.11138
7.03947
5.43896
2.95829
1.74236
1.61866
1.55742
1.52383
1.50587
1.50084
1.49755
1.48748
1.48165
1.48165
1.48202
1.48302
1.48828
1.4877
1.49208
1.49648
1.49761
1.51242
2.18529
5.98904
6.49669
0.856793
8.30914
5.67455
3.37485
2.65484
2.93446
3.48733
5.27521
6.56677
7.26359
7.91996
8.69699
9.57424
10.1916
10.8715
11.1751
11.2774
11.933
12.2712
12.8426
11.6942
10.0242
10.7782
8.39794
7.899
1.39808
6.2364
5.7957
3.3361
2.5817
2.67643
3.50162
4.09133
4.56427
5.51559
5.39184
5.1401
5.32861
5.83096
4.89701
5.34448
5.00968
4.97062
6.33104
5.66408
4.67588
4.7978
4.4158
3.98095
3.86311
1.45307
4.17139
5.93271
4.49479
3.30914
2.67133
2.84985
2.88055
2.81571
2.76315
2.69351
2.78662
2.7191
2.55325
2.42485
2.29293
2.26866
2.36517
2.59617
2.42408
2.40955
2.32346
2.26062
2.41838
2.69331
1.5165
1.81133
5.68075
6.19275
5.18737
3.88013
3.12901
2.64922
2.27095
1.99312
2.02786
2.09948
1.93495
1.76126
1.77472
1.76125
1.78687
1.77121
2.21134
2.19048
2.10718
2.04649
2.10829
2.51183
2.55093
1.51679
1.64411
3.64057
5.80625
5.42124
4.05621
3.83624
3.08904
2.35444
1.92392
1.84291
1.80172
1.70736
1.61511
1.62837
1.62728
1.64971
1.68656
1.80158
1.99108
1.94976
1.94536
2.05874
2.43919
2.47887
1.5508
2.13546
8.69071
10.5292
9.89436
10.0609
9.62949
9.00745
8.66811
8.27274
8.09576
8.14668
7.96229
7.79254
7.57655
7.45242
7.35907
7.19984
7.08758
6.88706
6.68942
6.1619
5.53585
5.08363
5.77772
1.53315
1.95129
4.16979
3.75834
6.16222
12.738
18.1087
20.3171
22.4515
22.8879
23.409
24.6857
24.257
24.044
23.8439
23.4828
23.196
23.0576
22.5409
22.0258
21.3393
19.077
13.0209
11.7355
10.2645
1.49523
1.88889
2.97634
2.23674
1.61645
1.56771
1.58985
1.61664
1.64232
1.65661
1.66994
1.70965
1.72181
1.74246
1.76193
1.76867
1.77761
1.77361
1.78492
1.78338
1.76966
1.81065
2.37311
3.27672
4.65017
1.52455
1.81627
2.44563
1.94748
1.52712
1.48227
1.47471
1.4786
1.48262
1.48198
1.4752
1.47072
1.46856
1.4667
1.46897
1.46737
1.46471
1.46439
1.46405
1.46643
1.46472
1.47616
1.51746
1.68153
2.08128
1.51721
1.74632
2.28129
1.86213
1.50283
1.48028
1.4762
1.48897
1.49746
1.48754
1.47801
1.47513
1.47561
1.47294
1.47008
1.46883
1.46162
1.46445
1.46291
1.46571
1.46758
1.47008
1.47066
1.52166
1.6228
1.51331
1.70653
2.1157
1.80614
1.51546
1.50112
1.52212
1.6707
1.58888
1.52473
1.4888
1.4923
1.49248
1.48124
1.47193
1.46939
1.46325
1.46424
1.46563
1.46624
1.46749
1.4663
1.46304
1.48395
1.513
1.4993
1.71017
2.10312
1.80857
1.5285
1.53748
1.64915
2.36193
1.7376
1.55228
1.54474
1.59816
1.61568
1.507
1.47908
1.46883
1.46553
1.46739
1.46416
1.4653
1.46591
1.46265
1.45949
1.47271
1.48259
1.48142
1.77098
2.21902
1.87241
1.53186
1.55219
1.72621
2.49508
1.72145
1.5445
1.56186
1.72247
1.73971
1.53615
1.48107
1.46991
1.46495
1.46672
1.46549
1.4634
1.46384
1.46482
1.45826
1.47311
1.47673
1.50661
1.99269
2.43612
1.96319
1.52453
1.53273
1.67226
2.14008
1.62028
1.54483
1.56396
1.81401
1.70102
1.52733
1.48112
1.46566
1.46704
1.46547
1.46283
1.46361
1.4644
1.46552
1.45826
1.47059
1.47733
1.56971
2.26377
2.65467
2.07765
1.51482
1.49966
1.51559
1.57185
1.51933
1.51371
1.51942
1.64264
1.57002
1.49748
1.47729
1.46707
1.46502
1.46355
1.4661
1.46487
1.46699
1.4651
1.45969
1.47461
1.48958
1.35545
2.70526
2.94746
2.24727
1.51413
1.48717
1.48793
1.49955
1.49562
1.48834
1.48289
1.49884
1.49436
1.47723
1.47231
1.46514
1.46418
1.46543
1.46703
1.46569
1.46663
1.46468
1.45895
1.48264
1.524
1.11689
3.4461
3.40784
2.44017
1.5223
1.48982
1.48876
1.49585
1.49646
1.49058
1.48374
1.48231
1.48045
1.47067
1.4684
1.46557
1.46446
1.46471
1.46637
1.46387
1.46556
1.46793
1.46208
1.52165
1.63737
1.30527
4.19842
3.8068
2.64428
1.54854
1.50608
1.503
1.5031
1.4979
1.49333
1.48654
1.48233
1.47555
1.46971
1.46776
1.46604
1.46432
1.46379
1.46705
1.46512
1.46606
1.4682
1.47893
1.63906
2.01747
1.3156