/*--------------------------------*- C++ -*----------------------------------*\
  =========                 |
  \\      /  F ield         | OpenFOAM: The Open Source CFD Toolbox
   \\    /   O peration     | Website:  https://openfoam.org
    \\  /    A nd           | Version:  6
     \\/     M anipulation  |
\*---------------------------------------------------------------------------*/
FoamFile
{
    version     2.0;
    format      ascii;
    class       volScalarField;
    location    "5";
    object      nut;
}
// * * * * * * * * * * * * * * * * * * * * * * * * * * * * * * * * * * * * * //

dimensions      [0 2 -1 0 0 0 0];

internalField   nonuniform List<scalar> 
230684
(
0.928563
0.894947
1.52998
1.65057
0.623858
0.539939
0.562368
1.78602
2.31674
1.95183
2.11649
2.56531
1.68031
2.47235
2.4983
2.6188
2.56523
2.70854
2.78357
2.90868
2.90698
3.00673
2.77953
2.60028
2.44935
0.921069
0.849309
0.435421
0.46783
0.255611
0.225154
0.115869
1.01326
1.03352
0.965634
0.86673
1.29852
1.59167
1.28781
1.9038
1.98284
2.89254
1.95108
1.46308
2.33042
2.07033
1.76674
1.09483
2.70593
2.56866
0.911206
0.838273
0.404911
0.224522
0.310968
0.162663
0.151789
0.350577
0.316524
0.303803
0.29042
0.293475
0.283061
0.358605
0.354989
0.332503
0.336592
0.317496
0.337601
0.349942
0.319029
0.280248
0.652067
1.57453
1.3605
0.937665
0.402555
0.204891
0.231427
0.243637
0.168691
0.126712
0.264831
0.33487
0.365792
0.335258
0.112077
0.109367
0.106468
0.0743672
0.286451
0.283072
0.314378
0.326416
0.319485
0.285653
0.285615
0.689104
1.59893
1.33258
0.962267
0.817732
0.397978
0.205908
0.224636
0.247201
0.305457
0.389125
0.4604
0.422601
0.324921
0.105289
0.104079
0.103108
0.105
0.286266
0.290387
0.306455
0.315203
0.326537
0.321299
0.3295
0.815177
1.7593
1.47919
0.963047
0.800671
0.376876
0.195471
0.0999167
0.152884
0.145273
0.149208
0.268285
0.291686
0.284485
0.245831
0.21658
0.226058
0.0929927
0.304866
0.310175
0.331057
0.347965
0.340217
0.312343
0.305469
0.812986
1.81429
1.54706
0.960944
0.804891
0.381043
0.199778
0.222523
0.149283
0.138556
0.121367
0.15107
0.145622
0.139101
0.148903
0.129683
0.340662
0.265661
0.273584
0.348665
0.339183
0.351182
0.349124
0.34209
0.346281
0.90481
1.89774
1.61598
0.950006
0.810821
0.394513
0.207679
0.238117
0.234294
0.251345
0.362494
0.170474
0.149531
0.144865
0.146788
0.114888
0.354754
0.301639
0.307935
0.350932
0.336399
0.371769
0.370909
0.342647
0.377872
0.941387
1.93613
1.65552
0.911736
0.830034
0.404183
0.217136
0.244342
0.276275
0.286349
0.214104
0.158004
0.145627
0.143943
0.146533
0.353226
0.299686
0.293053
0.313481
0.317624
0.370028
0.373904
0.3568
0.344282
0.338728
0.906362
1.93479
1.65999
0.913316
0.857696
0.397284
0.221488
0.249375
0.27336
0.250604
0.114143
0.279365
0.293207
0.225497
0.145012
0.430141
0.430193
0.412171
0.371567
0.340303
0.341668
0.357382
0.381852
0.380107
0.409135
0.959549
1.97162
1.68156
0.907335
0.848279
0.413646
0.225427
0.22423
0.0753623
0.0861938
0.14205
0.135067
0.134119
0.133633
0.133467
0.0932696
0.215313
0.209329
0.245699
0.341717
0.362016
0.340888
0.342407
0.344495
0.343177
0.910395
1.8456
1.5678
0.885939
0.853788
0.426409
0.238118
0.246616
0.251694
0.119412
0.224982
0.129393
0.134312
0.135574
0.137025
0.129225
0.128891
0.128406
0.129052
0.112309
0.238235
0.13124
0.12644
0.275033
0.290744
0.784107
1.60414
1.34656
0.84022
0.858833
0.450529
0.246563
0.25622
0.25409
0.243551
0.356688
0.136193
0.137627
0.125575
0.0984478
0.32683
0.109258
0.0875423
0.130032
0.100433
0.303349
0.201232
0.109415
0.111533
0.292288
0.690194
0.58385
1.24417
0.852816
0.803514
0.46791
0.256851
0.26672
0.270588
0.267136
0.266617
0.273647
0.283642
0.306184
0.249823
0.244682
0.251173
0.230729
0.0802146
0.289416
0.429851
0.157156
0.212857
0.163213
0.119847
0.108913
0.23544
1.09379
0.843362
0.854775
0.480198
0.267195
0.259532
0.269086
0.268988
0.274314
0.276133
0.309567
0.297577
0.422846
0.100377
0.0968886
0.292436
0.36842
0.29184
0.390795
0.306951
0.252129
0.272616
0.128163
0.137522
0.249724
1.24721
0.842625
0.856517
0.522485
0.558532
0.610162
0.64567
0.629751
0.647097
0.652841
0.664771
0.257267
0.148872
0.104716
0.0904578
0.195235
0.186835
0.165215
0.743754
0.238306
0.126897
0.121129
0.120377
0.207523
1.89249
1.87793
0.928491
0.882661
1.38124
1.24587
1.1832
1.17856
0.524841
0.479642
1.12785
0.530071
0.244256
0.285083
0.116089
0.0964135
0.0981305
0.172584
0.149942
0.254306
0.115883
0.225719
0.130283
0.295018
0.846522
2.49451
2.9712
0.913791
0.835587
1.20949
1.27354
1.20634
0.527564
0.242449
0.273073
0.602934
1.45113
0.534482
0.223604
0.215285
0.195499
0.239938
0.169132
0.2416
0.271273
0.150391
0.205452
0.110565
2.07688
2.48682
2.22789
2.19401
0.956886
0.794985
1.09437
1.17718
1.18225
1.19297
0.535918
0.239544
0.779189
2.22753
0.755326
0.660207
0.143542
0.813622
0.670519
0.580604
0.523076
0.282839
0.151399
0.23925
0.820945
1.7625
1.73813
1.64964
1.5939
0.959116
0.843306
0.970648
1.12191
1.22942
1.17696
1.19095
1.2635
1.35759
1.37269
1.32646
0.666029
0.526897
1.23884
1.29007
1.20883
0.560154
0.244741
0.262843
0.609875
1.82053
1.48629
1.39574
1.23688
1.21564
4.69223
4.98788
10.9781
11.8137
8.26572
6.07305
7.04463
8.592
9.8297
8.52637
9.60292
9.74307
11.107
13.3541
12.001
16.5095
11.9555
15.5905
16.3348
17.616
17.4393
16.8559
17.0372
13.7355
12.698
4.47962
4.66756
6.80001
6.40197
6.81748
2.33788
0.366066
4.44078
10.6437
15.764
16.085
18.799
20.0445
23.0829
24.8889
24.3837
21.2262
22.9215
23.9213
20.8171
21.7996
18.576
16.0672
13.7784
12.1611
4.48471
4.61278
5.59827
5.85629
4.7091
1.80212
3.63377
4.91617
4.52944
4.93198
4.75372
5.30792
5.01218
4.90295
4.80749
4.68343
4.67159
5.06878
4.80317
4.22955
4.84853
5.04869
6.03388
4.66883
4.1003
4.6775
3.78748
5.05435
2.99436
4.70641
4.37395
4.62411
1.48228
2.03983
3.2752
4.48007
4.46229
4.20357
4.41723
4.06758
4.31376
5.40727
3.44312
3.23552
4.54269
3.84197
5.25167
4.6839
4.84092
4.49808
4.6812
5.69303
5.16956
4.22557
3.64295
1.3124
2.88278
4.47092
4.43593
4.04342
4.33411
4.13342
4.5458
6.12012
3.491
2.93836
4.57412
3.8075
5.28086
4.84938
3.32696
3.05594
3.39053
3.82482
3.40136
1.84002
1.76768
2.24896
4.4742
4.65907
4.51084
4.49216
4.6474
4.2874
5.45264
3.64909
3.07543
4.6445
3.74271
4.8142
4.93766
1.10633
0.160138
0.575415
3.50113
4.59273
4.61812
4.47043
4.31424
4.28768
4.25506
4.33205
4.28895
5.01846
3.78122
3.31602
4.52612
4.06463
5.37859
5.02957
4.17157
2.61522
0.983412
0.227639
0.498355
3.18142
4.33946
4.55892
4.14839
4.47693
4.29773
4.09863
4.36759
4.6547
4.1301
3.79843
3.38634
4.44066
4.65265
5.71628
5.39918
5.37955
4.79819
4.67131
0.820884
3.17947
4.53086
4.32544
4.28219
4.3896
4.65699
4.54414
4.25393
4.5132
4.00142
3.91231
3.59168
4.68544
4.95835
5.82517
5.83185
5.36728
3.93506
3.90278
2.1476
2.65729
2.14763
0.889867
0.205339
3.91564
4.45622
4.45881
4.31461
4.35904
4.33889
4.38351
4.43255
4.48767
4.43186
4.39519
4.59223
4.06734
4.79905
5.27535
6.16791
6.0553
5.0757
0.384291
1.95735
0.181006
0.938995
1.62676
1.40291
3.02412
3.82934
4.39724
4.50674
4.13816
4.43127
4.5015
3.84354
4.95493
3.96211
6.01847
5.82039
6.5062
6.3089
5.32359
3.34853
1.0982
0.655533
0.172766
0.292346
1.09184
1.53074
1.28124
1.43522
3.43701
3.37885
3.21034
2.77568
7.39185
6.48397
6.87764
6.62897
5.37907
6.11343
3.28642
2.64281
0.487062
1.77568
0.675951
0.280664
0.262721
0.637466
1.78627
0.152407
0.310235
2.61399
3.2698
2.39715
2.43262
15.6215
7.63649
8.02097
7.05174
5.48836
5.23481
4.70372
5.48931
4.68565
4.0269
3.9302
4.07931
3.02669
3.65503
0.87569
0.360672
2.88588
4.14291
1.47339
1.0083
1.36715
0.988163
2.81027
1.12239
9.00825
8.07328
7.19777
5.4781
5.38608
4.80701
4.68664
4.66914
4.49311
3.96429
2.42929
0.528926
0.889988
2.04375
3.98395
4.51695
3.71207
3.22681
1.49833
0.378656
1.53692
1.59742
5.28213
1.31624
9.314
8.30107
7.14381
6.22032
5.85167
5.77315
6.08185
9.14354
6.30367
4.50135
0.499675
0.653532
1.30709
3.13995
3.18996
0.538624
10.0748
10.5485
4.12061
7.48238
9.17906
6.46751
4.88591
5.36087
4.91675
3.67552
6.61182
6.52722
5.4464
4.79075
0.117883
0.122788
3.66233
1.13387
1.43803
2.98268
5.65122
14.1272
16.4228
15.4086
4.79503
6.64591
8.57423
7.8115
6.04509
5.20038
5.37993
4.80107
4.56562
6.99449
5.52046
4.13117
4.15087
0.592859
0.473519
0.961378
7.22122
0.859872
0.784194
13.1455
13.6917
10.6317
9.91323
4.58337
3.65904
7.68628
6.7967
5.99367
4.5907
7.29665
0.530994
3.66232
9.19238
6.45316
4.64599
2.68712
8.71928
9.57657
8.93733
9.30138
1.85472
4.9783
9.27868
10.0729
8.44836
8.49969
4.52492
4.31018
8.45604
8.04475
7.22979
5.90458
6.0785
6.49391
5.91305
5.84045
5.80875
5.11226
5.80599
4.41771
4.67775
4.8518
4.93907
8.07726
2.02917
4.67277
6.77442
5.92626
6.36722
5.82279
6.37793
6.53239
7.36925
15.6571
16.7098
13.389
10.5284
8.91389
15.4445
14.1847
13.0107
12.5589
12.5869
12.7234
12.5968
12.8259
13.3498
12.8596
12.8926
13.0822
13.1418
12.8305
12.4383
12.1068
11.3731
11.6726
6.5953
7.92367
11.6752
10.2493
11.9186
9.58636
8.50132
15.1743
22.1285
20.0457
22.0143
28.4233
27.9122
26.7406
27.9775
30.6813
26.472
25.7149
27.2578
26.965
26.9648
25.3376
19.555
17.5138
15.3132
6.48075
7.43952
8.74564
7.68886
6.75121
2.33021
1.82675
4.01872
6.48276
6.68196
6.48647
6.50216
6.46485
6.32357
6.34464
6.40807
6.18049
6.25715
6.28476
6.22595
6.22936
6.14009
6.90174
7.49528
8.6051
6.61138
6.84411
7.57529
7.12505
7.32141
3.07288
3.39648
4.94364
6.6888
6.68147
6.63626
3.54127
3.81295
4.4236
5.80442
6.58273
6.59948
6.51828
6.48999
6.4115
6.4379
6.46139
6.19422
5.44051
5.52898
6.54552
6.69198
7.84168
6.90846
6.9553
4.36815
4.33624
4.23918
6.65294
6.81103
6.74494
3.60522
4.01915
3.90837
4.42261
6.15348
6.58619
6.52678
6.50788
6.39391
6.42263
6.45326
6.12818
4.98285
4.97053
6.53775
6.62224
7.8418
7.23292
4.74415
2.62968
3.46847
6.19379
5.8227
5.41036
4.72129
5.04722
6.02217
6.55404
6.49608
6.40686
6.47691
6.39333
6.41144
6.1318
4.74128
4.96896
6.52508
6.58483
7.54829
7.23611
2.61338
0.385491
3.63934
6.0424
6.63828
6.59355
6.51933
6.44585
6.41998
6.45742
6.35997
6.3927
6.33961
4.61734
5.01666
6.30622
6.87137
7.95138
6.92192
4.85283
3.82452
2.10377
0.246448
3.03209
6.17431
6.68446
6.54286
6.52593
6.43712
6.41648
6.39964
6.38709
6.36798
5.87686
4.63932
4.93926
6.48128
7.19391
8.41822
7.09644
6.79684
6.88484
8.19405
0.205659
3.74227
6.55779
6.67061
6.53646
6.4889
6.4675
6.47934
6.43994
6.39863
6.38431
5.9063
4.56203
5.00718
6.67588
7.86482
8.64788
7.32733
6.71502
6.58583
6.53037
4.31907
3.15838
2.56366
1.69707
3.05044
6.41204
6.55377
6.62091
6.53756
6.54215
6.48939
6.4698
6.37569
6.39165
6.36618
5.88447
4.68576
5.29335
6.71508
8.61729
9.32778
7.46953
6.82403
5.84626
6.83305
0.161018
0.137666
0.149338
0.216105
0.442229
1.67548
1.52651
1.98118
2.96282
3.81769
6.06039
6.49491
6.41261
6.38199
6.42397
6.09946
5.01031
5.42631
9.18241
9.35094
9.50421
7.47559
6.76796
6.25697
6.3163
2.19857
0.971576
0.165276
0.146815
0.149751
0.113473
0.106174
0.131807
0.107583
0.365721
2.22126
5.1465
4.20751
4.32147
5.84801
5.98658
4.66501
4.61193
17.5815
9.53752
9.99466
7.86601
6.77076
6.78635
6.50881
6.44025
5.35495
4.49022
0.153498
0.517357
2.29072
3.28017
2.96968
0.844097
1.16897
3.95105
3.39223
3.39232
4.15225
5.39032
5.5001
4.94296
4.11718
5.1054
11.0084
10.5421
8.2196
6.91314
6.75201
6.68517
6.71118
6.5038
6.45238
5.69412
5.42936
5.16924
6.03692
5.82061
5.39323
6.17529
6.47421
4.15712
3.42634
2.23765
1.78975
2.80657
4.9196
6.20863
2.87021
12.3905
11.0255
8.44031
7.27728
6.97627
6.80387
6.65119
6.60684
6.66406
6.71919
6.77632
3.67419
3.84495
5.04061
6.18851
6.33445
6.50246
6.5953
5.57696
4.74649
3.38111
5.28575
8.57331
10.8422
1.58666
13.4218
10.3259
9.56736
8.65762
9.18832
9.804
12.7762
12.6709
10.6007
8.10608
4.19349
4.62813
6.5381
9.07028
6.36621
6.37184
10.51
11.6275
10.2621
9.71588
8.3613
10.1218
19.0774
17.3937
5.50404
10.4483
12.7359
8.94652
7.13338
8.19746
8.17695
8.22824
9.15159
9.66896
10.3389
11.3273
9.8221
12.9464
14.3434
8.72143
9.1396
15.4757
10.9715
10.4275
14.8731
15.332
22.4958
23.3188
18.6195
6.64303
10.9586
8.54614
7.93552
8.25607
7.60654
11.463
6.73509
7.95196
16.1876
13.7127
10.2248
10.4917
21.0868
30.7077
24.1427
20.288
22.1631
8.43595
11.2011
16.8024
23.0653
20.2411
15.1153
13.3257
6.41066
7.12409
10.9023
11.9952
9.94209
9.00722
12.0993
1.85162
12.7267
13.4299
13.3399
10.6269
13.4481
16.1795
19.5347
21.115
22.2917
22.6471
9.06969
11.2083
19.032
19.0991
16.3653
12.5888
11.8386
6.16975
6.72758
13.2118
12.1357
11.1574
8.81834
7.39503
10.4066
9.12507
8.0265
7.70478
7.75096
7.77422
7.80081
8.72372
9.33356
10.8444
14.4183
14.92
15.5991
16.514
15.3154
12.442
9.90773
9.94456
7.16378
10.2466
15.6644
17.8318
16.9273
15.482
16.9849
16.494
15.9773
14.4704
13.5886
13.101
13.1918
12.7489
12.5105
12.7237
12.2155
11.9061
11.5482
11.3605
10.8105
10.5225
10.3362
9.73898
10.7677
6.95923
9.01846
11.6286
10.7138
12.6034
17.0417
21.1411
23.2845
25.0482
22.2593
22.6842
26.7819
29.9763
30.3817
27.4764
30.2654
28.0839
26.8691
26.0335
25.5329
25.4418
24.2865
22.9236
14.0141
14.6203
6.51649
8.23101
9.60285
7.85401
7.12038
6.98805
6.80134
7.01341
6.93916
6.75436
6.77663
6.75074
6.69227
6.56709
6.53889
6.59519
6.47333
6.3919
6.44189
6.38808
6.43211
6.52186
7.4589
7.87678
9.18016
6.53927
7.53002
8.65926
7.37172
7.16012
7.03408
6.77835
6.84318
6.90808
6.87935
6.97681
6.83158
6.66296
6.68011
6.78259
6.80973
6.81119
6.80421
6.80323
6.8082
6.7996
6.81942
6.94774
6.72543
6.9671
6.84147
7.48954
8.73468
7.28194
7.11221
6.70477
6.55904
7.03053
7.0714
6.98501
7.0058
6.94749
6.74045
6.63413
6.71743
6.79597
6.80414
6.8099
6.80452
6.80196
6.81115
6.80534
6.84332
6.53001
6.36617
6.79886
7.2067
8.44611
7.46526
8.78583
5.08056
5.46433
5.87182
3.50333
3.60308
6.12999
5.90624
6.66613
6.82451
6.80224
6.79372
6.80548
6.80992
6.8063
6.81178
6.80863
6.80905
6.80713
6.44626
6.11782
6.83743
7.24923
8.26537
7.30197
6.49213
5.46043
5.04496
1.89168
3.63399
6.33896
6.8373
6.80353
6.80287
6.80545
6.81078
6.80263
6.80646
6.80149
6.80734
6.38861
6.06989
6.92052
7.26839
8.70159
7.1436
6.83531
6.85304
6.89269
0.187222
4.26867
6.82975
6.84923
6.80763
6.80515
6.80507
6.8096
6.80101
6.81044
6.80804
6.79388
6.37008
6.06231
6.96961
7.68744
8.74604
7.36717
6.92557
7.2713
9.63155
0.202239
4.83771
6.9237
6.84027
6.80635
6.80643
6.80761
6.80342
6.80208
6.80287
6.8119
6.80104
6.36012
6.09859
6.96806
8.26474
9.08058
7.37099
6.92674
7.02033
7.82988
5.82876
3.5416
2.78951
2.02609
2.89415
6.29984
6.85879
6.81827
6.8076
6.80325
6.80536
6.80846
6.81276
6.80736
6.8022
6.79342
6.41993
6.10717
5.27544
9.60951
9.90347
7.72569
6.86182
6.98954
8.31636
6.03876
5.23477
4.82532
4.9669
5.62356
5.38286
4.99289
5.62786
5.64914
6.34113
6.72146
6.80798
6.80563
6.8037
6.80883
6.80552
6.52042
6.22733
9.24176
9.97707
10.2569
7.73432
6.81071
6.84092
7.29259
6.34807
4.84929
4.49017
4.70776
5.14467
4.60796
4.37459
4.7472
4.44432
4.74076
5.94049
6.80953
6.70472
6.68765
6.77135
6.83271
6.39753
6.00909
12.3317
10.5554
10.4435
8.12998
6.83623
6.83161
6.87046
6.88097
6.82878
6.95876
5.6842
5.26508
6.08538
6.37763
6.13162
5.48813
5.64269
6.44732
6.89933
6.56328
6.67655
6.76378
6.82582
6.24088
6.18167
23.7467
12.1182
11.391
8.43218
6.9609
6.90563
6.8779
6.88076
6.85419
6.92591
6.75665
6.58577
6.70223
6.78446
6.80406
6.79214
6.80761
6.82443
6.85295
6.58385
6.63536
6.26358
6.20464
6.5306
7.83489
4.01478
13.7782
12.3859
8.82377
7.32444
7.07535
6.96315
6.88765
6.86122
6.92893
7.04602
7.36085
6.70674
6.57875
6.76734
6.82552
6.82098
6.83321
6.86837
6.81128
6.81359
6.60375
7.43409
8.19439
12.6363
2.13676
14.2022
12.8547
9.96396
8.85726
9.49423
11.1693
14.6577
14.0813
11.7583
11.6962
11.842
12.9397
12.496
13.6429
11.2892
13.8458
14.2982
14.3102
14.7843
14.2661
13.8937
16.041
17.2934
17.308
8.12761
11.653
13.286
9.37331
9.42868
9.40412
10.9999
10.4051
11.5507
12.1293
13.0311
16.2032
22.0366
26.0734
28.4728
22.6981
25.5327
23.3598
18.074
18.8117
19.4774
19.9216
18.5999
16.4747
15.7959
7.01926
10.9862
12.1801
11.4467
9.77871
10.5068
14.0867
17.3069
20.0713
22.271
20.5177
17.666
17.8884
21.9432
35.2193
31.1347
31.722
30.3227
20.8826
23.7763
23.1596
23.9477
18.3985
13.1634
13.1067
6.97107
9.02302
11.9604
14.3552
10.5016
9.91351
10.5927
18.2432
15.968
11.7048
15.6113
14.5742
15.5807
17.2848
18.7735
20.5198
24.7736
25.7789
26.0078
22.3976
24.0443
18.3799
18.2763
15.3477
13.6131
6.37245
7.10259
14.5598
14.4952
14.227
12.4147
13.3494
11.9765
8.68146
8.18067
8.10787
8.16295
8.13335
7.88751
7.05145
8.88796
11.1082
13.2696
24.6994
19.2997
17.046
13.1904
10.8841
9.94296
10.2681
7.0627
10.0466
18.1051
18.265
18.8184
18.6435
17.3652
16.1675
15.3725
14.1636
13.507
13.084
12.7097
12.386
12.1782
12.4514
11.7788
11.5786
11.2057
11.0984
10.9678
10.5532
10.0016
9.69045
10.2687
7.01322
8.40617
12.2721
10.7672
13.3874
17.9559
27.3511
24.9154
26.6353
25.762
25.2552
28.2922
28.5229
29.1974
27.6926
32.323
28.1833
25.1112
26.0525
26.1643
27.825
23.0688
22.6989
17.0318
16.0092
6.84788
8.14073
9.66964
7.8786
6.99343
6.96506
7.02155
6.90265
6.84622
6.75048
6.63407
6.79701
6.58231
6.58933
6.52217
6.60869
6.48091
6.36762
6.39738
6.29265
6.46746
6.46385
7.59244
8.47132
9.87436
6.9053
7.84243
9.06246
7.4352
6.82403
6.8597
6.82954
6.84105
6.86968
6.855
6.8375
6.8348
6.81857
6.80807
6.81704
6.80494
6.80704
6.80219
6.8078
6.80879
6.81163
6.81952
6.96026
7.06585
7.45777
6.89267
7.81766
9.14571
7.44065
6.81808
6.87798
6.91631
7.25953
7.00184
6.92877
6.8508
6.85176
6.84141
6.82094
6.81407
6.81224
6.80916
6.80263
6.81201
6.81
6.80908
6.81098
6.83069
6.93653
7.03076
6.88965
7.36994
8.4538
7.18366
6.99641
7.06553
7.31826
6.02812
2.96994
3.52669
6.03724
5.66395
6.58985
6.85375
6.81744
6.80522
6.81349
6.8117
6.81102
6.81
6.81654
6.8051
6.81723
6.79336
6.77749
6.8707
7.4148
8.40841
7.18064
6.97574
7.31428
8.59807
2.31507
3.31474
6.25075
6.82629
6.8036
6.80525
6.81205
6.80658
6.80192
6.81459
6.80099
6.8204
6.77019
6.67905
6.62538
7.78382
8.93246
7.25896
6.94031
7.42697
8.86679
0.185716
3.87919
6.71609
6.84446
6.80889
6.81437
6.81143
6.81425
6.79785
6.81253
6.80491
6.7837
6.7661
6.6878
7.13405
8.14451
8.70081
7.38197
6.93668
7.28185
9.236
0.197669
4.42946
6.83391
6.83027
6.81025
6.80792
6.80514
6.80359
6.81496
6.80732
6.8094
6.7841
6.77976
6.71215
7.00378
8.47197
9.07727
7.56925
6.86955
6.97925
7.39758
5.05929
3.40109
1.84236
0.960438
2.83995
5.83639
6.84554
6.82038
6.80991
6.81313
6.81078
6.80898
6.81132
6.80753
6.80363
6.81747
6.79406
6.71765
4.55357
10.0693
9.91047
7.81522
6.83497
6.87839
7.07832
7.06747
6.80399
6.75367
6.68547
6.96585
6.92449
6.8072
6.80288
6.7866
6.7985
6.80793
6.81326
6.81208
6.81104
6.80562
6.81237
6.81741
6.79893
8.64035
10.6021
10.5747
7.84588
6.79644
6.83264
6.90727
6.90608
6.80306
6.80321
6.83696
6.82247
6.74241
6.68329
6.68279
6.67907
6.70886
6.77651
6.81385
6.8126
6.80798
6.81103
6.84329
6.89263
6.8984
10.6644
11.3857
10.7933
8.15172
6.83521
6.83703
6.8538
6.86121
6.85333
6.91353
6.89854
6.84048
6.81867
6.8111
6.80619
6.77339
6.79443
6.80266
6.81558
6.81006
6.80993
6.81191
6.89755
6.9675
7.22811
21.5744
12.65
11.9255
8.52109
6.95959
6.91499
6.88688
6.86202
6.85144
6.8696
6.87135
6.83535
6.80642
6.8137
6.81477
6.80779
6.81624
6.81809
6.81815
6.80281
6.81401
6.81735
6.97966
7.19079
8.5466
4.39136
13.9448
12.6709
8.79894
7.32685
7.11263
6.95394
6.88383
6.85856
6.88525
6.90397
6.90679
6.84898
6.82838
6.82732
6.82832
6.82839
6.8316
6.83391
6.82684
6.83311
6.85738
8.03587
8.08215
14.225
2.13657
15.179
12.3621
10.3092
9.42013
8.89945
11.293
14.2054
14.6598
14.454
14.742
16.1591
15.721
15.9293
16.1543
17.9123
18.4138
18.0014
18.3759
17.8051
17.0633
15.8785
18.3209
17.2968
16.9221
7.9016
12.4287
13.22
9.68395
8.9922
8.91637
10.0692
11.794
9.16025
12.0332
10.9346
11.3394
19.7598
15.25
21.2533
23.7704
24.1834
25.5554
21.3407
16.2986
16.6113
14.5701
13.1958
12.5309
12.9444
5.66454
11.4471
15.884
13.3516
10.1162
9.79199
9.51627
16.9486
16.6334
15.1201
17.1561
16.0117
14.3024
15.587
18.639
20.0617
22.0998
20.497
23.251
21.7009
21.7224
17.316
10.7278
13.2864
11.8731
6.44355
8.71448
13.6367
20.6845
15.4085
12.4945
10.5303
10.9025
12.7693
13.7557
12.4929
13.1266
12.5915
12.59
10.2495
15.5164
15.1105
16.3505
18.9137
19.5135
16.6672
11.795
10.2215
9.54949
10.3719
6.55604
7.08039
12.8095
15.9272
15.4704
13.7146
11.5687
10.9708
8.44318
8.20898
8.31689
8.16773
7.70382
7.23367
7.02071
7.06099
10.0862
10.1282
19.4519
13.2141
14.1835
13.7728
12.3429
10.2894
10.4293
7.1068
12.653
17.4419
20.5667
20.2005
19.8318
17.8431
16.1558
15.2392
14.4954
13.8912
13.3501
13.1701
12.9309
12.2024
12.1715
11.5095
11.6577
11.5399
11.5723
11.3574
10.8971
10.2244
9.80892
10.8516
7.00217
7.65175
12.0785
10.9237
15.2407
21.0371
27.9662
24.9088
27.3746
28.5222
28.5934
28.9358
29.4449
31.3789
27.7308
30.7361
26.3659
27.5502
27.8732
29.0192
28.7642
24.8137
22.1125
22.9518
18.1207
6.99671
8.12635
9.84451
8.05376
6.98726
6.9319
6.86037
6.73781
6.76218
6.70398
6.67156
6.6498
6.60159
6.65456
6.46435
6.6144
6.42017
6.46943
6.39919
6.43387
6.57472
6.58346
7.46023
9.19172
10.6211
6.92389
7.64965
9.03561
7.44492
6.81025
6.81298
6.80541
6.82509
6.84769
6.83752
6.81705
6.81457
6.81976
6.81299
6.81186
6.79798
6.80971
6.80861
6.81295
6.80994
6.80141
6.82139
6.95852
7.15858
7.59498
6.90523
8.05479
9.36398
7.53802
6.79861
6.81164
6.8422
7.0289
6.94735
6.87958
6.81669
6.82756
6.8296
6.81659
6.81066
6.80354
6.80746
6.79986
6.81067
6.81095
6.80741
6.81353
6.82537
6.99129
7.17859
6.91704
7.45722
8.53343
7.17992
6.8327
6.92699
7.50749
5.36693
3.12893
3.81463
5.65974
5.69488
6.5678
6.83084
6.80828
6.80882
6.80819
6.80571
6.80055
6.80721
6.80954
6.80952
6.81951
6.7897
6.98531
6.8699
7.39181
8.36181
7.17142
6.87314
7.15534
8.01724
4.10554
2.66593
6.09636
6.81517
6.81095
6.80224
6.80637
6.8148
6.80877
6.8094
6.81252
6.80229
6.7345
6.83918
6.66528
7.80423
9.04608
7.28781
6.93957
7.24323
9.39767
0.257478
3.41084
6.56876
6.83137
6.8169
6.81082
6.79832
6.8064
6.80074
6.81075
6.81077
6.79657
6.76997
6.83823
7.12089
8.42371
8.76696
7.42242
6.88776
7.12669
9.64625
0.277486
4.06097
6.74174
6.82502
6.81045
6.80898
6.80814
6.808
6.81294
6.81082
6.81167
6.79871
6.80686
6.86786
6.66646
8.92521
9.04648
7.52661
6.85291
6.90441
7.24308
5.6393
3.44578
2.04849
1.05762
2.18251
5.05846
6.79982
6.81566
6.8106
6.8092
6.80758
6.8093
6.80949
6.81122
6.80447
6.8011
6.80698
6.89405
5.21998
9.91351
9.77262
7.74272
6.81332
6.83611
6.86849
6.92224
6.84086
6.83033
6.72699
6.91257
6.9085
6.83552
6.81596
6.8119
6.80946
6.80724
6.81225
6.81067
6.81184
6.81117
6.80247
6.78834
6.98322
8.84982
10.6808
10.6526
7.88647
6.79086
6.82375
6.83646
6.86778
6.85134
6.84107
6.839
6.84905
6.8339
6.81637
6.81024
6.80667
6.80868
6.81041
6.80768
6.81139
6.80779
6.80189
6.79925
6.98371
7.16602
10.8251
11.8686
11.2477
8.31532
6.83072
6.84474
6.85184
6.85256
6.84758
6.84686
6.84396
6.83344
6.81883
6.80097
6.80391
6.8
6.79986
6.81056
6.80434
6.81276
6.80788
6.80879
6.87653
7.13971
7.58562
27.5347
13.0265
12.7552
8.57881
6.96329
6.91199
6.89121
6.86374
6.85243
6.85088
6.84652
6.81701
6.80663
6.812
6.80995
6.81309
6.81696
6.81341
6.80498
6.80828
6.81626
6.81463
6.9505
7.39052
9.02795
5.02953
14.3062
12.4281
8.716
7.35696
7.1202
6.95277
6.89082
6.85861
6.86494
6.86611
6.85276
6.82964
6.82723
6.82694
6.82346
6.82876
6.82354
6.82663
6.81864
6.8248
6.85427
7.95421
9.13971
14.6378
2.60104
16.1279
12.7422
10.2389
8.96421
9.35245
10.1195
16.1859
14.9118
14.8635
15.3633
15.4789
16.9235
15.4429
18.3827
18.4306
18.7141
20.0578
20.5672
21.1098
19.9284
17.4227
20.1321
17.4025
16.6008
7.88341
12.8949
13.5453
9.48582
8.7055
8.86515
10.5929
11.2548
12.3703
14.5504
13.3457
10.9202
15.7662
15.4891
15.4852
16.2675
18.4464
24.5349
19.0513
13.2271
23.7492
13.6971
13.5447
13.8576
12.0901
5.58562
10.7812
13.0812
10.6257
10.7348
9.80617
8.2014
12.0249
11.6685
11.2341
14.3475
11.0049
10.4796
10.1009
8.88108
13.9338
11.0935
12.0991
14.1222
10.237
13.6132
11.4522
9.94589
10.8831
10.4571
6.81854
7.80872
13.7133
20.0246
17.2968
12.3375
10.948
7.55335
9.34433
8.66041
7.45562
10.8782
7.13637
7.21963
7.64568
9.80379
8.16393
8.47227
16.432
9.0484
10.7815
9.23399
9.91232
9.94381
9.9055
6.7964
8.76409
16.5482
15.9753
18.1398
16.1807
13.1456
11.1511
9.12654
9.31904
8.48989
8.27457
7.88485
6.68347
6.92483
7.5544
7.44942
6.19123
12.5434
10.8437
8.21573
9.07743
9.42193
9.38346
9.46989
7.06033
12.2206
18.2411
21.5485
21.8047
20.614
18.5429
16.6447
15.471
14.4935
13.8864
13.6734
13.4109
12.9783
11.6892
12.3669
12.0966
12.2018
12.3807
12.1003
11.8449
11.2365
10.3869
9.90896
11.1133
6.99708
7.39078
11.5725
11.3402
16.6431
23.276
26.6266
28.8879
27.6475
29.571
29.2464
29.4946
31.0342
30.3816
28.234
31.5237
27.0894
28.3072
29.7536
27.8822
28.2512
24.8694
21.4921
18.8649
17.0455
6.97214
8.1965
9.97105
8.1916
7.01092
6.94577
6.86828
6.69294
6.69363
6.71265
6.64212
6.5641
6.65507
6.56664
6.47517
6.58965
6.40626
6.52522
6.53081
6.55378
6.54234
6.66783
7.93382
8.68496
10.557
6.89556
7.91788
8.83715
7.34623
6.8225
6.80328
6.80389
6.81766
6.82976
6.82806
6.81078
6.81772
6.8144
6.8112
6.81514
6.79996
6.81299
6.81225
6.80944
6.80923
6.81054
6.81867
6.96465
7.17059
7.61222
6.9338
7.93755
9.28542
7.47606
6.80427
6.8031
6.81057
6.89907
6.87971
6.84718
6.81594
6.81566
6.82274
6.81203
6.81132
6.80511
6.80533
6.80401
6.80527
6.81154
6.80008
6.80928
6.83342
7.02928
7.25556
6.91845
7.50121
8.38004
7.09145
6.81856
6.86868
7.10865
8.62589
5.42715
5.94075
6.09073
6.56576
6.80253
6.82408
6.80555
6.80569
6.80224
6.80632
6.81027
6.80984
6.81166
6.80155
6.81477
6.85818
7.07401
6.75887
7.50964
8.30579
7.13259
6.89768
6.96872
7.54168
6.42947
2.18208
1.62282
1.55541
2.08897
4.73735
6.7027
6.81295
6.80927
6.80292
6.8128
6.80738
6.80577
6.80241
6.80872
6.8135
6.80274
6.93881
6.66813
7.67635
8.95222
7.25563
6.88554
7.06632
8.27479
3.98062
2.23362
1.44639
1.36075
2.08839
5.8047
6.82962
6.82464
6.81368
6.80421
6.81115
6.80945
6.80245
6.8071
6.8059
6.80213
6.81292
6.93248
7.02379
8.08617
8.92122
7.39897
6.86686
6.96366
7.43457
3.68206
2.11487
1.45684
1.38634
2.50593
6.17345
6.86036
6.82016
6.80398
6.80944
6.80732
6.80541
6.80901
6.81002
6.80863
6.79722
6.84403
6.95165
6.90822
8.8541
9.23385
7.51134
6.82899
6.85856
7.01385
7.1161
5.65681
4.94619
4.20425
4.22928
6.33409
6.84103
6.81215
6.8103
6.81498
6.80673
6.80674
6.81082
6.80961
6.80889
6.79758
6.8215
6.9776
4.86747
9.62525
9.5484
7.6764
6.80535
6.82035
6.83512
6.88621
6.84116
6.83791
6.80349
6.89883
6.87173
6.82066
6.81455
6.80997
6.806
6.80483
6.80717
6.81191
6.81347
6.81155
6.80516
6.84393
7.06654
9.79394
9.82966
10.0162
7.86236
6.78661
6.82294
6.82987
6.84754
6.84429
6.83272
6.82836
6.83433
6.8246
6.81094
6.80749
6.80604
6.80707
6.8108
6.8083
6.81403
6.80459
6.80454
6.7902
7.03462
7.29663
11.3133
11.2863
11.1159
8.21713
6.8335
6.85025
6.85015
6.84932
6.84628
6.84019
6.8324
6.8251
6.81773
6.80563
6.80832
6.81116
6.81005
6.81131
6.81103
6.80887
6.80891
6.80809
6.86938
7.23602
7.80836
22.5295
13.2836
12.2396
8.5659
6.96688
6.92507
6.89085
6.86741
6.85499
6.84671
6.83469
6.81559
6.81408
6.80947
6.81692
6.80938
6.81164
6.81529
6.80328
6.8066
6.80367
6.81507
6.93424
7.8359
9.08072
4.48069
14.4283
12.8661
8.66304
7.36296
7.09217
6.95304
6.89483
6.86211
6.85723
6.85148
6.8388
6.83093
6.82826
6.82819
6.82035
6.82432
6.82907
6.82817
6.82443
6.82819
6.85756
8.28014
13.6811
14.7504
2.12559
16.55
13.0361
9.82014
8.87649
9.96975
10.0451
14.2233
16.1218
15.0827
16.0635
16.8518
17.7301
17.8346
19.1188
19.4338
19.1198
22.5547
23.0265
22.515
20.316
18.6835
20.2483
17.3598
17.1342
4.89539
14.9352
14.0691
10.2442
8.30081
9.29795
12.3105
13.1734
11.7076
15.1402
14.9167
12.6714
13.2518
15.2514
11.3352
13.3511
11.3373
12.6196
16.1592
15.0698
10.2247
15.8787
12.4199
11.7398
11.4067
5.48493
10.4314
12.6645
10.3869
9.72527
8.32699
11.0342
9.92687
9.50641
9.35818
9.04671
9.11718
8.88667
8.26879
9.05915
10.3424
8.3363
8.31734
8.58116
7.61483
8.07721
8.23697
8.09795
9.01778
9.65098
6.70839
5.63804
14.0151
15.4074
14.4103
12.0715
10.9206
9.64287
8.90567
7.18633
7.62218
9.11289
6.98805
6.36775
7.54442
7.50893
7.50159
6.66101
9.38507
8.50405
8.16737
7.88993
7.84405
10.156
9.89802
6.90648
7.36996
13.3549
14.3361
14.0109
11.0832
14.1907
12.8649
9.9387
8.4946
8.03397
7.86804
7.52203
7.07703
7.60921
7.53087
7.55055
7.49001
7.22743
8.42053
8.11094
8.25099
7.74203
9.89614
9.74862
6.94884
6.59698
18.1417
23.8437
20.0987
20.8877
19.2844
16.8734
15.5701
14.4158
13.946
14.3212
13.9828
13.5696
13.0975
13.0339
12.8958
12.5368
12.3676
11.9894
11.8308
11.2388
10.7858
10.9142
12.1641
7.01769
7.87678
12.1027
10.9423
14.8515
25.2316
29.7006
26.1896
28.3722
27.5651
27.7947
33.8389
31.7726
29.7365
30.0629
29.7761
29.3704
28.7692
28.3265
28.5544
26.3376
28.2864
20.2422
19.9473
17.7934
6.63402
8.30975
9.88071
7.97682
7.00081
7.00996
6.90464
6.78799
6.67943
6.7815
6.60679
6.68388
6.59442
6.55744
6.59658
6.55439
6.49326
6.43287
6.51243
6.51591
6.45
6.716
7.69533
8.83351
10.7676
6.93394
8.16849
8.99497
7.36148
6.83431
6.80766
6.80394
6.81074
6.82313
6.82319
6.81192
6.81499
6.80969
6.80617
6.81043
6.81363
6.80368
6.80656
6.80832
6.80681
6.81243
6.82003
6.97165
7.31424
7.77728
6.94288
7.87833
9.00145
7.35651
6.8044
6.80289
6.79924
6.82989
6.83845
6.82439
6.81451
6.8145
6.8183
6.81407
6.81353
6.81171
6.80071
6.80816
6.80338
6.80677
6.8097
6.81717
6.86003
7.13796
7.45144
6.88971
7.69688
8.49661
7.01681
6.81095
6.83985
6.89186
7.243
6.89509
6.84464
6.79354
6.82386
6.83779
6.81918
6.81045
6.81204
6.80086
6.80483
6.80671
6.80622
6.81243
6.80552
6.80634
7.03342
7.2252
6.78858
7.61283
8.34448
7.10578
6.85752
6.92708
7.15855
7.84626
6.76964
6.52568
6.47246
6.68868
6.91575
6.84538
6.81311
6.81205
6.80581
6.81416
6.81256
6.80487
6.81227
6.80395
6.82389
6.96844
7.10662
6.8594
7.83564
8.94779
7.22976
6.85392
6.92523
7.35711
7.17661
6.74606
6.43046
6.43888
6.96358
7.16982
6.88837
6.81642
6.81235
6.80689
6.80857
6.80675
6.80241
6.79816
6.80623
6.82651
7.03682
7.10955
6.96826
8.22318
9.00857
7.41639
6.8386
6.88347
7.21701
7.16559
6.64391
6.43678
6.43319
6.93292
7.11093
6.87804
6.81788
6.80727
6.80861
6.81182
6.79674
6.81066
6.80757
6.8027
6.82069
7.00877
7.09326
7.09637
8.68875
9.24957
7.53026
6.80772
6.83852
6.87974
6.91542
6.80717
6.74638
6.71239
6.90392
6.92811
6.83808
6.81477
6.81033
6.80837
6.80733
6.81151
6.80579
6.80625
6.80443
6.80932
6.98413
7.13339
5.53457
9.16629
9.54795
7.70135
6.79465
6.81618
6.82176
6.84597
6.83745
6.82727
6.82069
6.85467
6.84034