/*--------------------------------*- C++ -*----------------------------------*\
  =========                 |
  \\      /  F ield         | OpenFOAM: The Open Source CFD Toolbox
   \\    /   O peration     | Website:  https://openfoam.org
    \\  /    A nd           | Version:  6
     \\/     M anipulation  |
\*---------------------------------------------------------------------------*/
FoamFile
{
    version     2.0;
    format      ascii;
    class       volScalarField;
    location    "5";
    object      p;
}
// * * * * * * * * * * * * * * * * * * * * * * * * * * * * * * * * * * * * * //

dimensions      [0 2 -2 0 0 0 0];

internalField   nonuniform List<scalar> 
230684
(
-2542.33
-2534.89
-2514.92
-2474.62
-2398.44
-2250.36
-2045.28
-1842.3
-1752.53
-1660.41
-1557.18
-1444.34
-1324.04
-1198.48
-1072.78
-949.315
-829.906
-713.518
-601.271
-494.43
-389.542
-286.183
-183.985
-90.9584
-30.7465
-2545.85
-2544.19
-2530.39
-2480.88
-2429.78
-2307.9
-2093.18
-1853.49
-1778.75
-1689.49
-1583.91
-1468.49
-1350.01
-1222.83
-1094.72
-971.459
-852.193
-736.126
-622.177
-512.258
-403.675
-296.897
-185.302
-76.0063
-26.3514
-2547.72
-2549.56
-2534.96
-2462.45
-2329.5
-2360.92
-2105.99
-1888.91
-1810.74
-1704.75
-1595.98
-1489.77
-1369.13
-1231.24
-1105.07
-980.575
-861.737
-747.238
-631.632
-515.141
-397.565
-276.421
-132.234
-51.9625
-17.8455
-2547.46
-2550.43
-2532.53
-2459.96
-2316.94
-2389.61
-2086.99
-1933.44
-1811.14
-1694.09
-1567.08
-1643.09
-1389.16
-1193.58
-1118.51
-971.323
-856.053
-738.478
-620.016
-498.95
-374.848
-245.577
-101.945
-37.2307
-13.1764
-2548.77
-2551.94
-2542.86
-2469.38
-2359.68
-2274.42
-2088.63
-1948.17
-1816.69
-1691.25
-1549.98
-1694.22
-1332.02
-1197.59
-1061.25
-956.555
-848.173
-729.139
-608.296
-485.319
-357.375
-224.795
-87.7315
-29.7761
-10.6408
-2546.36
-2546.38
-2531.1
-2460.1
-2328.27
-2397.02
-2140.58
-2007.93
-1808.81
-1691.63
-1566.95
-1459.44
-1321.13
-1154.92
-1157.49
-942.974
-844.182
-724.117
-600.457
-474.859
-345.31
-213.282
-79.9132
-25.6233
-8.84757
-2545.11
-2545.62
-2528.85
-2456.64
-2306.12
-2345.12
-2145.85
-1976
-1984.6
-1712.49
-1554.18
-1472.42
-1300.33
-1168.28
-1061.74
-949.99
-838.736
-720.57
-596.554
-468.647
-338.16
-206.893
-76.0922
-23.4048
-7.7523
-2545.24
-2547.51
-2531.96
-2462.54
-2345.39
-2223.6
-2091.01
-2098.48
-2063.79
-1750.27
-1575.18
-1421.16
-1233.22
-1152.23
-1062.11
-951.624
-838.131
-718.872
-593.946
-465.686
-335.21
-203.609
-74.1776
-22.3208
-7.19761
-2545.49
-2548.7
-2531.43
-2454.06
-2330.86
-2215.48
-2091.94
-2291.92
-1992.53
-1756.48
-1598.43
-1440.63
-1214.34
-1160.49
-1065.5
-956.518
-841.223
-719.766
-595.283
-467.163
-335.629
-203.579
-73.3356
-22.0082
-6.97839
-2544.94
-2548.44
-2528.37
-2443.99
-2320
-2208.46
-2097.86
-2033.08
-1883.45
-1746.19
-1615.96
-1474.99
-1274.1
-1171.58
-1071.15
-962.254
-846.662
-724.75
-599.786
-471.644
-338.275
-204.466
-74.4564
-22.456
-7.07214
-2542.75
-2546.59
-2524.45
-2434.56
-2298.02
-2205.1
-2017.37
-2111.23
-1888.48
-1741.27
-1609.83
-1460.63
-1306.89
-1168.91
-1075.36
-965.444
-846.627
-731.452
-611.927
-481.396
-343.941
-206.906
-76.332
-23.8412
-7.64514
-2538.37
-2542.61
-2519.39
-2431.52
-2320.72
-2190.3
-2138.53
-1959.44
-1903.01
-1730.62
-1671.79
-1530.59
-1381.73
-1286.7
-1146.32
-1007.37
-844.856
-705.377
-654.972
-485.23
-348.047
-214.273
-81.4719
-26.9984
-9.18999
-2530.37
-2535.19
-2511.8
-2424.23
-2315.54
-2213.34
-2094.24
-1982.26
-1913.93
-1750.34
-1673.35
-1561.82
-1395.79
-1279.59
-1160.59
-960.373
-911.365
-737.868
-721.022
-500.727
-374.272
-223.806
-89.5897
-40.1548
-8.68839
-2516.62
-2521.91
-2500.4
-2415.53
-2311.14
-2212.73
-2109.29
-2005.51
-1893.63
-1783.04
-1670.48
-1551.24
-1427.94
-1312.16
-1172.01
-1098.27
-916.115
-782.34
-695.651
-499.089
-466.54
-259.44
-121.281
-56.1811
-11.7984
-2495.5
-2499.87
-2485.7
-2406.01
-2309.51
-2220.44
-2123.28
-2016.61
-1903.56
-1792.51
-1674.64
-1546.4
-1512.87
-1306.25
-1200.15
-1069.73
-937.237
-809.042
-695.72
-547.812
-424.924
-308.076
-178.631
-84.2464
-17.8799
-2467.65
-2465.13
-2453.87
-2382.09
-2304.79
-2229.64
-2136.68
-2023.43
-1906.51
-1803.01
-1701.75
-1598.96
-1553.31
-1348.14
-1185.62
-1187.19
-953.144
-809.983
-726.372
-608.306
-439.382
-314.305
-174.859
-86.3152
-28.891
-2431.44
-2418.99
-2395.94
-2345.3
-2284.1
-2209.74
-2135.61
-2015.24
-1881.94
-1807.57
-1700.85
-1552.21
-1607.48
-1348.79
-1280.72
-1182.87
-988.976
-851.988
-775.271
-594.289
-463.395
-338.27
-211.13
-106.451
-35.2468
-2400.03
-2385.67
-2364.6
-2321.5
-2266.21
-2199.69
-2088.9
-2036.12
-1889.99
-1796.39
-1731.77
-1633.49
-1505.71
-1373.76
-1255.05
-1190.36
-1030.37
-875.449
-871.734
-578.371
-458.902
-295.917
-217.986
-127.027
-41.1345
-2381.01
-2369.37
-2349.44
-2311.08
-2259.8
-2197.36
-2115.1
-2068.3
-1909.83
-1798.33
-1726.22
-1594.01
-1536.26
-1332.64
-1248.72
-1155.32
-1027.06
-865.232
-864.51
-554.745
-424.896
-303.5
-223.639
-132.599
-43.1169
-2372.42
-2363.88
-2344.82
-2308.67
-2259.47
-2196
-2109.18
-2015.65
-1912.08
-1806.52
-1708.25
-1620.21
-1478.42
-1319.05
-1225.46
-1129.05
-1034.42
-885.486
-761
-559.011
-402.036
-313.859
-226.173
-134.251
-43.9863
-2544.78
-2537.87
-2514.68
-2472.72
-2401.34
-2241.07
-2046.64
-1853.8
-1756.72
-1657.21
-1551.77
-1439.41
-1319.67
-1195.63
-1071.44
-948.708
-829.835
-713.582
-601.202
-495.353
-391.491
-288.997
-185.89
-89.2732
-29.6311
-2547.77
-2547.06
-2533.66
-2486.35
-2433.03
-2288.82
-2119.95
-1873.84
-1782.16
-1687.02
-1580.94
-1465.09
-1347.29
-1221.1
-1094.02
-969.668
-851.703
-736.246
-621.666
-512.161
-404.436
-298.276
-185.367
-73.7523
-25.5534
-2548.96
-2551.34
-2540.1
-2469.54
-2322.07
-1910.44
-1814.1
-1704.92
-1594.3
-1482.69
-1365.02
-1231.48
-1105.97
-981.326
-862.512
-747.724
-631.621
-514.279
-396.748
-274.036
-128.937
-50.0061
-16.6117
-2548.67
-2551.7
-2535.06
-2461.13
-2322.64
-1944.22
-1817.27
-1697.61
-1572.13
-1210.71
-1093.57
-974.035
-856.424
-738.052
-619.449
-498.083
-373.731
-243.566
-99.6584
-36.0281
-11.8011
-2549.69
-2553.19
-2543.47
-2468.43
-2350.88
-2264.7
-2100.49
-1956.12
-1821.68
-1693.74
-1560.53
-1083.33
-963.383
-848.929
-728.801
-607.493
-484.474
-356.022
-223.404
-85.2366
-29.066
-9.39596
-2547.09
-2548.01
-2534.33
-2461.33
-2315.94
-1824.2
-1691.81
-1568.31
-1439.15
-1323.12
-1174.66
-957.711
-843.514
-723.376
-599.808
-473.569
-344.191
-212.054
-77.602
-25.1869
-7.77028
-2545.94
-2547.13
-2532.09
-2455.9
-2297.47
-1996.38
-1297.97
-1169.61
-1065.96
-953.571
-839.479
-720.124
-595.936
-467.487
-337.589
-205.822
-73.1113
-23.017
-6.78339
-2546.05
-2548.6
-2535.04
-2465.21
-2337.09
-2219.43
-2087.48
-1982.62
-1247.4
-1160.32
-1062.84
-952.859
-837.834
-718.505
-593.47
-464.425
-334.917
-202.368
-71.1763
-21.8954
-6.28279
-2546.36
-2549.47
-2534.59
-2459.15
-2334.02
-2214.02
-2090.8
-1240.38
-1166.34
-1066.77
-957.334
-841.676
-720.057
-595.104
-466.026
-335.263
-201.828
-70.7383
-21.718
-6.10954
-2545.96
-2549.27
-2531.72
-2450.83
-2324.53
-2208.73
-2097.21
-2037.44
-1889.78
-1745.9
-1631.37
-1470.49
-1288.05
-1179.04
-1075.48
-963.621
-847.95
-725.381
-600.07
-471.052
-338.362
-202.991
-71.536
-22.2948
-6.22419
-2543.87
-2547.58
-2528.26
-2442.67
-2308.03
-2202.61
-2041.04
-1466.83
-1313.02
-1193.83
-1084.35
-970.904
-853.487
-733.728
-611.82
-480.726
-343.463
-206.566
-74.039
-23.9116
-6.80391
-2539.69
-2543.74
-2523.25
-2439.15
-2321.15
-2201.19
-2122.14
-1981.12
-1901.37
-840.056
-738.424
-637.37
-494.797
-352.565
-215.259
-79.3171
-27.0374
-8.23832
-2531.96
-2536.42
-2515.66
-2432.4
-2319.22
-2210.27
-2100.66
-1973.64
-1526.51
-1403.42
-1275.57
-1161.95
-1015.71
-899.617
-754.592
-523.628
-375.383
-227.302
-90.6738
-38.5626
-8.98284
-2518.52
-2523.51
-2504.03
-2423.97
-2315.65
-2213.65
-2110.4
-2004.16
-1892.75
-1781.19
-1669.1
-1542.56
-1432.63
-1307.18
-1185.52
-1085.63
-920.066
-782.749
-635.35
-535.558
-120.889
-59.0368
-12.5302
-2497.71
-2502.42
-2489.69
-2414.53
-2314.3
-2222.44
-2124.88
-2016.89
-1904.27
-1792.95
-1676.89
-1532.64
-1312.3
-1214.86
-1070.99
-938.839
-809.752
-685.929
-547.678
-416.668
-299.95
-159.021
-83.9791
-18.3957
-2470.32
-2468.38
-2460.04
-2392.01
-2311.18
-2233.88
-2139.04
-2024.08
-1903.97
-1803.23
-1688.9
-1531.46
-1347.69
-1207.66
-817.174
-704.309
-182.874
-90.3599
-29.6019
-2434.32
-2421.07
-2395.06
-2348.59
-2288.81
-2213.09
-2140.18
-2014.59
-1881.89
-1808.11
-1687.68
-1547.24
-1351.8
-1005.59
-853.562
-765.312
-604.748
-469.298
-338.632
-221.035
-109.223
-36.2074
-2402.13
-2388.13
-2364.89
-2323.74
-2268.01
-2201.6
-2078.9
-2043.02
-1898.42
-1795.75
-1727.65
-1617.54
-1505.13
-1386.93
-1260.9
-1021.19
-855.296
-588.365
-469.462
-305.239
-220.173
-125.213
-40.1293
-2382.92
-2371.59
-2350.8
-2312.2
-2261.43
-2197.2
-2110.5
-2075.94
-1915.73
-1798.45
-1720.26
-1547.69
-1350.95
-1231.24
-1152.62
-1015.17
-823.133
-573.448
-433.742
-310.657
-224.792
-130.382
-42.0878
-2373.97
-2366.18
-2346.8
-2309.22
-2260.47
-2196.43
-2108.54
-2015.11
-1910.38
-1803.27
-1700.69
-1609.88
-1471.9
-1327.11
-1228.14
-1126.24
-1026.84
-864.575
-755.996
-572.817
-411.991
-319.397
-225.881
-131.753
-42.9116
-2546.76
-2539.8
-2511.6
-2462.11
-2382.79
-2222.17
-2049.11
-1874.53
-1762.93
-1654.27
-1545.45
-1432.14
-1313.44
-1191.45
-1068.8
-947.496
-829.505
-713.985
-602.137
-495.653
-392.083
-290.521
-187.848
-89.9415
-29.7186
-2549.51
-2549.76
-2534.42
-2483.03
-2393.72
-2255.53
-2082.48
-1896.7
-1784.06
-1684.08
-1577.25
-1460.64
-1341
-1216.68
-1092.72
-967.934
-850.51
-735.283
-620.921
-512.151
-404.26
-301.145
-184.246
-72.4824
-25.15
-2550.8
-2554.58
-2543.16
-2473.92
-2354.77
-2251.94
-2098.16
-1933
-1817.69
-1705.64
-1592.99
-1478.26
-1358.72
-1231.97
-1106.17
-982.437
-863.589
-747.514
-630.814
-514.011
-395.099
-271.858
-124.397
-47.9253
-15.6892
-2551.1
-2555.97
-2542.19
-2463.85
-2338.66
-2246.81
-2097.72
-1953.28
-1822.33
-1700.67
-1577.82
-1466.28
-1350.12
-1222.33
-1096.51
-974.794
-856.642
-737.877
-618.531
-497.219
-371.674
-239.751
-94.4902
-34.0258
-10.7205
-2550.66
-2554.25
-2542.34
-2467.34
-2342.62
-2238.97
-2102.85
-1962.55
-1828.28
-1697.87
-1569.09
-1450.67
-1332.35
-1210.11
-1085.4
-966.11
-848.668
-728.992
-607.215
-482.959
-354.207
-219.756
-80.4112
-27.269
-8.44583
-2548.34
-2550.33
-2535.52
-2459.65
-2321.13
-1838.16
-1695.93
-1568.6
-1441.1
-1309.36
-1188.74
-1077.63
-959.687
-842.921
-722.655
-599.284
-472.642
-342.619
-208.476
-72.9908
-23.5906
-7.00034
-2547.28
-2549.46
-2533.51
-2454.85
-2312.32
-2034.92
-1284.16
-1177.2
-1068.49
-955.063
-839.319
-719.197
-595.263
-466.317
-336.084
-202.207
-68.7732
-21.5601
-6.14079
-2547.26
-2550.42
-2534.93
-2461
-2331.04
-2212.5
-2085.73
-1993.56
-1261.88
-1170.19
-1066.4
-954.682
-838.276
-717.525
-592.852
-463.686
-333.141
-199.192
-67.0479
-20.55
-5.71749
-2547.5
-2551.16
-2534.32
-2457.68
-2332.62
-2211.27
-2086.34
-1330.62
-1272.54
-1174.85
-1070.61
-959.083
-841.752
-719.856
-594.27
-465.425
-333.357
-198.494
-66.708
-20.4494
-5.60103
-2547.13
-2551.05
-2531.97
-2451.77
-2327.26
-2209.09
-2092.8
-2019.45
-1884.13
-1752.53
-1637.16
-1455.88
-1302.47
-1189.3
-1080.54
-966.659
-848.792
-725.907
-599.941
-470.242
-336.565
-200.546
-67.5469
-21.0702
-5.73966
-2545.23
-2549.62
-2528.59
-2445.61
-2318.93
-2204.12
-2079.18
-1997.85
-1876.82
-1747.69
-1607.48
-1487.6
-1334.52
-1207.9
-1093.95
-978.184
-860.443
-736.319
-610.311
-478.861
-343.206
-205.284
-70.2866
-22.7155
-6.29552
-2541.17
-2545.78
-2523.78
-2441.27
-2321.84
-2209.73
-2097.98
-1987.92
-1884.06
-1756.02
-1641.22
-1495.87
-1374.35
-1256.91
-1128.91
-1016.04
-887.105
-751.24
-620.799
-489.964
-356.685
-214.553
-75.5133
-25.9815
-7.61773
-2533.65
-2538.68
-2516.4
-2435.12
-2320.65
-2211.3
-2102.57
-1988.43
-1879.18
-1746.35
-1654.48
-1559.59
-1405.66
-1277.73
-1152.85
-1040.67
-895.683
-764.77
-636.027
-507.598
-369.728
-227.583
-86.9322
-32.9529
-9.57395
-2520.61
-2526.1
-2504.43
-2427.03
-2318.17
-2215.06
-2111.06
-2002.94
-1891.34
-1777.03
-1663.25
-1543.3
-1428.38
-1304.54
-1178.52
-1051.44
-919.182
-786.774
-650.548
-525.818
-390.9
-251.871
-106.965
-46.4217
-13.8568
-2499.81
-2505.01
-2489.82
-2417.68
-2317.58
-2224.38
-2125.4
-2017.19
-1905.04
-1794.25
-1680.26
-1556.19
-1458.5
-1328.17
-1202.36
-1073.03
-942.153
-812.509
-682.673
-549.595
-415.364
-282.664
-136.72
-66.4391
-20.6551
-2471.86
-2470.39
-2461.26
-2397.22
-2315.63
-2236.64
-2140.07
-2021.78
-1904.24
-1804.79
-1696.63
-1596.21
-1490.99
-1346.33
-1216.89
-1106.13
-965.509
-822.809
-695.98
-569.218
-438.138
-310.471
-184.333
-93.7774
-30.5862
-2435.96
-2422.46
-2395.74
-2351.38
-2291.68
-2214.09
-2138.95
-2009.77
-1884.84
-1788.56
-1695.14
-1586.45
-1524.23
-1385.49
-1253.46
-1126.86
-971.306
-837.114
-720.467
-581.894
-451.595
-311.993
-212.032
-112.438
-36.36
-2403.98
-2389.24
-2364.28
-2324
-2267.46
-2200.64
-2077.02
-2033.77
-1907.55
-1795.26
-1715.97
-1586.2
-1490.8
-1379.53
-1258.98
-1133.46
-1000.73
-838.534
-754.797
-583.93
-453.132
-316.633
-221.083
-122.68
-39.2688
-2384.75
-2373.22
-2351.15
-2311.67
-2260.9
-2196.33
-2107.5
-2059.62
-1922.41
-1798.96
-1711.13
-1579.99
-1492.14
-1367.5
-1230.9
-1116.54
-1001.6
-840.487
-764.25
-586.867
-430.036
-323.864
-225.426
-127.518
-41.2275
-2375.68
-2368.32
-2347.79
-2308.56
-2259.58
-2195.13
-2107.99
-2013.42
-1907.82
-1799.72
-1691.25
-1567.09
-1448.05
-1334.63
-1225.91
-1115.7
-1010.27
-838.876
-738.221
-588.673
-431.573
-328.346
-225.994
-128.996
-42.137
-2548.34
-2540.93
-2506.4
-2447.42
-2335.92
-2188.68
-2036.4
-1893.26
-1769.34
-1653.55
-1540.81
-1426.26
-1308.03
-1187.51
-1066.53
-946.39
-829.224
-714.361
-603.153
-496.167
-392.705
-291.683
-188.928
-90.5118
-29.7148
-2551.17
-2552.02
-2534.16
-2474.62
-2374.84
-2225.35
-2066.62
-1912.09
-1789.72
-1682.48
-1573.93
-1456.07
-1337.13
-1212.55
-1091.48
-967.526
-849.456
-735.37
-621.128
-512.551
-404.552
-304.021
-184.009
-71.5406
-24.8622
-2552.63
-2557.29
-2546.24
-2476.06
-2363.41
-2242.45
-2096.53
-1947.54
-1822.01
-1706.41
-1592.45
-1475.82
-1355.7
-1230.18
-1105.99
-983.565
-863.886
-747.497
-630.024
-513.507
-394.498
-270.691
-121.602
-46.5315
-15.1982
-2552.99
-2557.7
-2545.81
-2468.61
-2346.44
-2231.45
-2096.75
-1957.72
-1827.24
-1703.76
-1581.42
-1462.65
-1345.88
-1221.96
-1097.62
-976.192
-857.203
-737.833
-617.955
-496.091
-370.112
-236.602
-91.1366
-32.7366
-10.2352
-2552.03
-2555.99
-2543.48
-2467.82
-2342.92
-2227.69
-2098.35
-1963.48
-1832.93
-1701.65
-1574.76
-1450.92
-1332.58
-1210.82
-1088.35
-967.924
-848.952
-729.046
-606.709
-481.479
-352.629
-216.566
-77.0586
-26.1639
-8.07266
-2550.17
-2553.14
-2538.66
-2462.72
-2331.99
-2229.44
-2104.67
-1987.89
-1850.22
-1700.46
-1571.66
-1445.71
-1315.29
-1196.17
-1078.91
-960.942
-843.142
-722.184
-598.677
-471.585
-340.883
-205.573
-69.7185
-22.6236
-6.74992
-2549.07
-2552.07
-2536.4
-2459.33
-2328.47
-2219.36
-2092.07
-1980.93
-1294.77
-1185.34
-1072.55
-956.916
-839.65
-718.898
-594.246
-465.274
-334.419
-199.189
-65.8074
-20.7028
-5.97114
-2548.91
-2552.64
-2536.44
-2460.17
-2332.5
-2209.31
-2081.43
-1996.33
-1278.77
-1180.14
-1071.13
-956.85
-839.08
-717.391
-592.148
-462.776
-331.463
-196.359
-64.0732
-19.808
-5.60071
-2548.98
-2553.21
-2535.54
-2457.49
-2332.01
-2209.11
-2081.72
-1351.88
-1290.61
-1184.66
-1075.24
-961.119
-842.569
-719.99
-593.7
-464.632
-331.936
-196.138
-63.8491
-19.7429
-5.52183
-2548.55
-2553.16
-2533.56
-2452.89
-2329.19
-2210.66
-2095.11
-2005.41
-1876.93
-1745.1
-1634.65
-1463.68
-1315.24
-1198.98
-1085.69
-969.566
-850.073
-726.497
-599.737
-469.448
-335.25
-198.302
-64.9164
-20.3902
-5.69088
-2546.8
-2551.71
-2529.81
-2447.39
-2324.94
-2208.77
-2093.74
-1988.14
-1869.86
-1742.16
-1610.94
-1481.3
-1345.5
-1221.97
-1102.4
-984.574
-861.572
-737.151
-609.478
-477.91
-342.22
-203.666
-67.6277
-22.061
-6.25539
-2542.91
-2548.02
-2525.28
-2442.52
-2323.75
-2211.53
-2098.73
-1984.92
-1872.31
-1745.55
-1621.42
-1494.88
-1371.85
-1252.23
-1127.31
-1009.29
-877.246
-751.192
-621.814
-489.986
-353.968
-212.176
-72.8246
-25.3486
-7.46502
-2535.54
-2540.75
-2517.59
-2436.68
-2322.04
-2212.43
-2102.78
-1990.58
-1877.99
-1756.99
-1645.28
-1523.92
-1400.91
-1276.65
-1151.8
-1029.03
-898.039
-767.431
-637.02
-506.469
-368.881
-225.448
-83.2461
-31.9271
-9.57766
-2522.7
-2528.24
-2505.59
-2429.07
-2320
-2216.45
-2111.3
-2002.19
-1890.6
-1776.35
-1660.56
-1542.56
-1425.68
-1303.36
-1178.1
-1050.92
-920.294
-789.708
-657.354
-525.985
-388.771
-248.371
-101.571
-44.8194
-14.1859
-2501.7
-2506.98
-2490.3
-2419.76
-2319.91
-2225.67
-2125.54
-2017.35
-1905.78
-1795.07
-1681.61
-1563.44
-1452.94
-1329.84
-1203.53
-1075.07
-944.659
-814.442
-683.241
-550.369
-416.786
-280.293
-133.106
-67.175
-22.1186
-2473.39
-2471.88
-2461.89
-2399.73
-2317.66
-2237.66
-2139.69
-2022.21
-1907.27
-1806.33
-1698.88
-1583.01
-1472.67
-1349.01
-1222.21
-1095.72
-961.592
-829.016
-697.192
-568.81
-440.678
-313.875
-180.019
-97.6481
-31.3156
-2437.47
-2423.45
-2396.35
-2352.97
-2292.4
-2213.05
-2105.78
-1997.7
-1890.89
-1787.52
-1672.82
-1566.42
-1466.23
-1356.95
-1250.7
-1114.27
-960.986
-843.463
-711.555
-558.651
-441.448
-320.029
-211.473
-113.017
-36.63
-2405.53
-2390.39
-2364.54
-2322.86
-2265.86
-2184.36
-2089.47
-2018.89
-1900.66
-1793.65
-1669.68
-1558.16
-1463.71
-1356.06
-1231.04
-1102.73
-967.102
-846.547
-725.031
-571.275
-449.843
-327.754
-221.068
-121.191
-39.3283
-2386.33
-2374.76
-2351.96
-2311.25
-2259.18
-2193.28
-2105.83
-2039.53
-1901.87
-1798.29
-1676.36
-1561.27
-1460.7
-1350.2
-1229.72
-1105.86
-962.683
-848.664
-734.502
-577.753
-451.267
-333.432
-226.065
-125.636
-41.1363
-2377.42
-2370.03
-2348.5
-2308.29
-2258.14
-2192.14
-2106.14
-2008.67
-1903.23
-1796.53
-1685.25
-1565.3
-1448.49
-1334.66
-1221.65
-1104.71
-963.989
-831.131
-713.725
-579.8
-451.38
-336.468
-227.093
-127.477
-42.132
-2549.31
-2541.25
-2502.02
-2438
-2331.31
-2186.61
-2037.39
-1900.61
-1775.14
-1654.82
-1538.67
-1422.85
-1304.64
-1184.64
-1065.02
-945.948
-829.317
-714.723
-603.917
-496.815
-393.312
-292.408
-189.307
-90.7368
-29.6388
-2552.33
-2553.36
-2533.48
-2468.27
-2366.14
-2226.69
-2070.04
-1924.78
-1797.52
-1682.85
-1571.36
-1453.19
-1333.17
-1210.26
-1090.52
-967.883
-849.083
-736.097
-621.446
-513.453
-404.812
-304.696
-183.791
-71.176
-24.6401
-2554.11
-2559.33
-2548.45
-2476.39
-2363.04
-2238.1
-2097.52
-1955.98
-1827.17
-1708.04
-1592.55
-1474.59
-1353.23
-1228.67
-1105.76
-984.515
-863.871
-747.44
-629.744
-513.63
-394.255
-270.056
-119.84
-45.7458
-14.8888
-2554.55
-2559.71
-2548.3
-2471.47
-2348.02
-2226.29
-2095.63
-1961.09
-1831.57
-1706.96
-1584.45
-1463.92
-1343.78
-1221.07
-1098.77
-977.164
-857.667
-737.687
-617.531
-495.29
-369.035
-234.698
-89.1568
-31.9215
-9.97889
-2553.56
-2558.01
-2545.44
-2469.19
-2343.28
-2222.46
-2095.36
-1964.66
-1835.9
-1705.04
-1578.95
-1455.18
-1333.57
-1212.02
-1090.46
-969.508
-849.669
-728.876
-606.263
-480.497
-351.014
-214.814
-75.1232
-25.4437
-7.89576
-2552.01
-2555.83
-2542.44
-2466.4
-2338.42
-2220.78
-2095.88
-1971.93
-1853.58
-1705.45
-1576.34
-1451.87
-1321.02
-1201.05
-1081.66
-962.52
-843.655
-722.063
-598.035
-470.504
-339.688
-203.449
-67.8112
-21.9767
-6.64054
-2550.92
-2554.55
-2539.52
-2463.54
-2334.72
-2214.32
-2084.49
-1964.8
-1306
-1192.65
-1076.44
-959.055
-840.37
-719.003
-593.568
-464.628
-333.101
-197.251
-64.0183
-20.1164
-5.89476
-2550.59
-2554.66
-2538.39
-2461.25
-2333.59
-2208.42
-2078.16
-1981.46
-1294.76
-1189.02
-1075.99
-959.135
-840.119
-717.562
-591.58
-461.969
-330.021
-194.491
-62.3464
-19.287
-5.54573
-2550.5
-2555.04
-2537.09
-2458.76
-2332.27
-2208.62
-2078.5
-1388.6
-1305.34
-1193.6
-1079.81
-963.312
-843.63
-720.401
-593.35
-464.012
-330.682
-194.572
-62.1758
-19.2591
-5.49455
-2549.97
-2555
-2534.99
-2454.51
-2330.52
-2211.46
-2093.62
-1993.86
-1870.15
-1741.55
-1629.61
-1473.86
-1326.25
-1207.21
-1090.36
-972.436
-851.425
-726.958
-599.493
-468.813
-334.264
-196.852
-63.3685
-19.9562
-5.70342
-2548.21
-2553.64
-2531.41
-2449.24
-2327.72
-2210.98
-2095.82
-1983.21
-1865.33
-1740.6
-1614.56
-1483.8
-1350.98
-1227.82
-1107.36
-986.981
-863.161
-737.731
-609.067
-477.316
-341.274
-202.115
-66.054
-21.6699
-6.28506
-2544.59
-2550.07
-2526.97
-2443.9
-2325.44
-2212.29
-2098.63
-1984.3
-1869.01
-1746.23
-1622.58
-1498.17
-1373.85
-1252.46
-1129.46
-1006.92
-879.91
-751.651
-622.143
-489.439
-352.158
-210.53
-71.2508
-24.9937
-7.43623
-2537.23
-2542.63
-2518.81
-2437.93
-2323.28
-2213.29
-2102.99
-1990.7
-1877.13
-1758.96
-1641.47
-1521.24
-1399.14
-1276.36
-1152.65
-1027.76
-899.343
-769.134
-638.723
-505.966
-368.098
-224.058
-81.1639
-31.4162
-9.49341
-2524.29
-2530.11
-2506.98
-2430.34
-2321.28
-2217.21
-2111.54
-2001.95
-1890.24
-1775.89
-1659.7
-1541.87
-1423.57
-1302.4
-1177.9
-1051.06
-921.974
-791.861
-659.977
-526.749
-389.35
-245.689
-99.3133
-44.2128
-14.1131
-2503.35
-2508.59
-2490.97
-2421.8
-2321.39
-2226.54
-2125.75
-2017.86
-1906.54
-1795.78
-1682.25
-1565.58
-1450.02
-1329.28
-1204.23
-1076.33
-946.937
-816.336
-684.561
-551.758
-417.937
-279.081
-133.436
-68.2426
-22.8153
-2474.7
-2473.07
-2462.49
-2401.17
-2318.16
-2237.22
-2139.74
-2025
-1911.7
-1808.4
-1700
-1581.97
-1468.56
-1350.65
-1224.71
-1097.26
-966.419
-834.792
-698.477
-569.707
-443.758
-316.058
-185.608
-100.13
-31.9197
-2438.47
-2424.17
-2396.74
-2353.69
-2291.9
-2212.77
-2110.5
-2000.95
-1893.03
-1788.66
-1675.87
-1564.13
-1456.91
-1346.78
-1224.77
-1094.44
-962.193
-821.437
-689.1
-566.662
-447.144
-325.301
-213.431
-113.84
-36.8977
-2406.67
-2391.4
-2364.93
-2321.78
-2264.78
-2187.85
-2092.72
-2001.71
-1900.01
-1791.7
-1672.54
-1558.8
-1455.21
-1346.35
-1225.62
-1098.42
-965.08
-828.832
-705.915
-581.173
-457.375
-333.613
-222.243
-121.018
-39.8445
-2387.62
-2376.11
-2352.49
-2310.72
-2256.48
-2189.27
-2100.64
-2002.86
-1901.58
-1794.86
-1676.63
-1560.63
-1453.78
-1344.12
-1224.97
-1099.68
-964.619
-833.457
-714.163
-587.867
-461.107
-339.061
-226.897
-125.196
-41.6766
-2378.84
-2371.06
-2348.62
-2307.72
-2256.11
-2188.12
-2102.03
-2004.03
-1899.5
-1793.52
-1682.03
-1564.44
-1448.34
-1334.48
-1219.64
-1100.16
-966.422
-834.966
-713.5
-586.027
-461.05
-341.248
-227.917
-126.677
-42.4502
-2549.68
-2541.18
-2499.31
-2431.24
-2328.02
-2189.2
-2042.56
-1906.45
-1779.35
-1657.05
-1538.72
-1421.27
-1302.63
-1182.84
-1064.25
-945.978
-829.323
-715.043
-604.513
-497.595
-394.051
-292.902
-189.443
-90.4212
-29.3516
-2552.99
-2553.94
-2532.83
-2464.25
-2362.2
-2229.14
-2076.49
-1933.67
-1804
-1684.41
-1570.12
-1450.79
-1330.86
-1208.1
-1090.22
-967.342
-850.035
-736.96
-621.222
-513.897
-406.066
-304.433
-184.034
-70.8546
-24.3704
-2555.17
-2560.78
-2549.78
-2476.11
-2361.44
-2236.74
-2099.27
-1961.53
-1831.73
-1710.03
-1592.9
-1473.79
-1351.53
-1227.67
-1105.48
-984.884
-864.633
-747.684
-630.03
-513.553
-393.918
-269.602
-119.009
-45.3201
-14.6997
-2555.89
-2561.55
-2550.29
-2473.03
-2348.12
-2224.22
-2095.17
-1963.41
-1834.82
-1709.64
-1586.66
-1465.12
-1343.15
-1220.8
-1099.61
-977.844
-858.147
-737.752
-617.316
-494.935
-368.131
-233.93
-88.0699
-31.4459
-9.84322
-2554.96
-2559.8
-2547.4
-2470.85
-2343.4
-2219.78
-2093.4
-1964.69
-1836.9
-1708
-1582.35
-1458.36
-1335.24
-1213.36
-1091.9
-970.782
-850.184
-728.674
-605.807
-479.96
-349.753
-213.756
-74.0237
-24.9965
-7.79845
-2553.61
-2558.09
-2545.42
-2469.24
-2340.2
-2217.42
-2091.49
-1961.74
-1849.86
-1710.55
-1581.96
-1456.93
-1326.27
-1204.53
-1084.04
-964.161
-844.137
-721.901
-597.406
-469.83
-338.569
-201.975
-66.7346
-21.5628
-6.5892
-2552.56
-2556.78
-2542.67
-2466.87
-2336.92
-2212.97
-2083.15
-1945.14
-1314.8
-1198.61
-1079.64
-960.884
-840.96
-719.155
-593.127
-464.014
-332.17
-195.796
-62.9621
-19.7331
-5.86514
-2552.03
-2556.53
-2540.58
-2463.09
-2334.74
-2209.53
-2079.91
-1962.35
-1307.52
-1196.22
-1079.83
-961.32
-840.899
-717.798
-591.262
-461.282
-328.803
-193.159
-61.3397
-18.9318
-5.51693
-2551.8
-2556.69
-2538.73
-2460.1
-2333.06
-2209.66
-2079.86
-1514.92
-1316.84
-1200.97
-1084.1
-965.497
-844.931
-720.576
-592.995
-463.345
-329.577
-193.501
-61.2004
-18.9332
-5.47878
-2551.18
-2556.58
-2536.58
-2456.1
-2331.51
-2211.98
-2092.67
-1983.45
-1862.47
-1736.86
-1624.87
-1479.23
-1335.11
-1213.61
-1094.26
-974.575
-852.551
-727.44
-599.403
-468.019
-333.646
-195.797
-62.4223
-19.6869
-5.72814
-2549.43
-2555.23
-2533.13
-2450.85
-2329.17
-2211.97
-2096.04
-1980.37
-1861.98
-1739.01
-1615.12
-1486
-1355.38
-1231.99
-1110.72
-988.764
-864.621
-738.625
-609.091
-476.657
-340.534
-200.812
-65.11
-21.4476
-6.32274
-2546.01
-2551.65
-2528.33
-2445.13
-2326.64
-2212.7
-2098.52
-1983.58
-1867.4
-1745.98
-1623.42
-1499.94
-1375.96
-1253.75
-1130.77
-1006.8
-880.874
-752.638
-622.395
-489.007
-351.273
-209.324
-70.3726
-24.8319
-7.44079
-2538.57
-2544.14
-2519.74
-2439.04
-2324.12
-2213.81
-2102.99
-1990.59
-1876.52
-1759.08
-1640.37
-1520.33
-1398.93
-1276.37
-1152.96
-1027.45
-900.293
-770.666
-639.643
-506.246
-367.674
-223.331
-80.2988
-31.2771
-9.43302
-2525.62
-2531.78
-2508.59
-2431.61
-2322.21
-2217.72
-2111.68
-2001.9
-1889.97
-1775.85
-1659.54
-1541.26
-1422.61
-1302.06
-1177.76
-1051.42
-923.509
-793.661
-661.461
-527.788
-389.717
-244.815
-98.8802
-44.2763
-14.0595
-2504.78
-2510.11
-2492.4
-2423.52
-2322.16
-2226.99
-2126
-2018.51
-1907.39
-1796.3
-1682.84
-1566.27
-1448.72
-1328.84
-1204.47
-1077.29
-948.843
-818.152
-686.053
-553.325
-418.975
-279.255
-135.081
-69.6456
-23.2983
-2475.72
-2474.15
-2463.2
-2402.41
-2318.17
-2235.86
-2140.77
-2028.22
-1915.81
-1810.42
-1700.68
-1583.94
-1465.61
-1351.02
-1225.62
-1097.78
-969.805
-839.147
-702.363
-572.93
-447.057
-319.032
-191.265
-102.948
-32.7276
-2438.93
-2424.59
-2396.86
-2353.79
-2290.96
-2211.74
-2113.42
-2005.26
-1897.58
-1791.49
-1678.97
-1564.91
-1453.03
-1340.18
-1219.23
-1091.93
-962.441
-826.002
-694.135
-571.761
-451.326
-329.732
-216.65
-115.464
-37.6593
-2407.21
-2391.96
-2364.96
-2321.18
-2263.5
-2188.78
-2095.61
-1998.32
-1896.41
-1790.16
-1675.11
-1560.84
-1451.39
-1339.91
-1220.96
-1095.93
-965.882
-832.094
-706.143
-583.804
-460.6
-337.689
-224.282
-121.745
-40.6869
-2388.5
-2377.01
-2352.31
-2309.63
-2253.74
-2184.72
-2097.44
-1999.42
-1897.6
-1792.08
-1678.01
-1562.27
-1451.05
-1339.35
-1221.21
-1097.62
-967.123
-836.118
-712.893
-589.552
-465.271
-342.84
-228.876
-125.93
-42.5051
-2379.93
-2371.77
-2348.08
-2305.94
-2253.55
-2184.21
-2098
-2000.24
-1897.23
-1791.65
-1680.71
-1564.9
-1449.01
-1334.22
-1218.27
-1097.83
-968.197
-838.311
-714.418
-589.096
-465.335
-344.634
-230.188
-127.421
-43.1722
-2549.74
-2540.85
-2496.83
-2426.31
-2325.67
-2191.61
-2047.44
-1910.6
-1782.04
-1658.65
-1539.07
-1420.81
-1301.77
-1181.64
-1063.38
-945.756
-829.345
-715.628
-605.416
-498.429
-394.654
-293.059
-189.231
-89.7814
-28.9656
-2553.37
-2554.23
-2532.35
-2460.76
-2359.67
-2228.7
-2082.49
-1939.7
-1807.95
-1685.26
-1569.89
-1450.22
-1328.71
-1207.07
-1089.71
-967.573
-850.089
-736.829
-622.239
-513.405
-407.547
-303.538
-184.421
-70.545
-24.2074
-2555.86
-2561.76
-2550.72
-2475.56
-2359.85
-2235.66
-2100.7
-1965.53
-1834.97
-1711.9
-1593.54
-1473.36
-1350.06
-1226.91
-1105.38
-985.3
-865.066
-747.933
-630.452
-513.222
-393.951
-269.113
-118.644
-45.1587
-14.7008
-2556.9
-2563
-2551.82
-2474
-2347.81
-2223.07
-2095.03
-1965.06
-1836.89
-1711.65
-1588.26
-1465.91
-1343
-1220.84
-1100.17
-978.46
-858.376
-738.102
-617.174
-494.699
-367.65
-233.472
-87.618
-31.2384
-9.83709
-2556.05
-2561.43
-2549.28
-2472.17
-2343.34
-2218.62
-2092.51
-1964.88
-1837.34
-1710
-1584.95
-1460.49
-1336.83
-1214.43
-1092.96
-971.868
-850.473
-728.672
-605.438
-479.803
-349.233
-212.817
-73.4528
-24.7664
-7.7852
-2554.87
-2559.89
-2547.78
-2471.2
-2340.85
-2216.43
-2091.04
-1963.31
-1842.67
-1711.11
-1585.11
-1458.5
-1330.09
-1207.01
-1086.08
-965.693
-844.442
-722.044
-597.336
-469.66
-337.921
-201.048
-66.1418
-21.3371
-6.59247
-2553.75
-2558.58
-2545.2
-2469.19
-2338.23
-2213.72
-2088.03
-1970.31
-1853.91
-1717.07
-1590.56
-1461.33
-1321.67
-1202.15
-1082.38
-962.615
-841.621
-719.061
-592.839
-463.619
-331.453
-194.787
-62.3444
-19.5251
-5.88375
-2553.07
-2558.15
-2542.71
-2464.78
-2335.89
-2211.78
-2087.29
-1996.6
-1857.82
-1723.73
-1597.87
-1465.4
-1316.9
-1200.77
-1082.96
-963.178
-841.613
-718.199
-591.127
-460.842
-328.09
-192.173
-60.7562
-18.74
-5.53931
-2552.68
-2558.01
-2540.35
-2461.12
-2333.93
-2211.55
-2087.42
-2001.77
-1855.93
-1728.21
-1604.47
-1469.92
-1323.95
-1206.15
-1087.55
-967.322
-846.007
-720.815
-592.818
-462.625
-328.908
-192.6
-60.6572
-18.7598
-5.51006
-2551.99
-2557.78
-2538.02
-2457.15
-2332.26
-2212.7
-2093.65
-1978.12
-1857.28
-1733.61
-1612.8
-1477.71
-1340.73
-1218.38
-1097.81
-976.486
-853.597
-727.882
-599.485
-467.668
-333.184
-195.105
-61.883
-19.5458
-5.7796
-2550.23
-2556.39
-2534.68
-2452.03
-2330.02
-2212.5
-2095.96
-1978.67
-1859.84
-1737.86
-1614.72
-1486.94
-1358.52
-1234.91
-1113.27
-990.181
-865.696
-739.212
-609.396
-476.203
-340.015
-199.932
-64.5893
-21.3546
-6.38403
-2546.86
-2552.78
-2529.59
-2446.46
-2327.28
-2212.8
-2098.25
-1983.05
-1866.5
-1745.68
-1623.83
-1501.08
-1377.59
-1254.83
-1131.82
-1007.35
-881.626
-753.47
-622.795
-488.763
-350.971
-208.86
-69.9662
-24.8081
-7.48748
-2539.6
-2545.46
-2521.51
-2440.51
-2324.74
-2214.1
-2102.93
-1990.54
-1876.17
-1758.91
-1640.01
-1520.3
-1399.12
-1276.65
-1153.17
-1027.8
-901.051
-771.797
-640.734
-506.418
-367.673
-223.107
-80.1278
-31.3411
-9.44314
-2526.59
-2533.17
-2509.94
-2432.79
-2322.75
-2217.95
-2111.68
-2002.28
-1890.06
-1776
-1659.5
-1541.16
-1422.32
-1301.61
-1177.74
-1051.82
-924.737
-795.054
-662.75
-528.609
-390.361
-245.061
-99.223
-44.6196
-14.0948
-2505.64
-2511.3
-2493.66
-2424.8
-2322.22
-2226.96
-2126.24
-2019.18
-1908.45
-1796.96
-1683.3
-1566.49
-1448.23
-1328.36
-1204.56
-1077.9
-950.225
-819.642
-687.409
-554.988
-420.157
-280.319
-136.923
-71.0036
-23.6691
-2476.41
-2475.08
-2464.11
-2403.15
-2317.66
-2234.34
-2140.82
-2031.34
-1919.37
-1812.81
-1701.09
-1584.96
-1465.52
-1349.55
-1226.29
-1097.69
-971.881
-841.935
-705.953
-576.336
-450.489
-323.367
-196.468
-105.723
-33.5549
-2439.39
-2425.07
-2397.01
-2353.54
-2289.78
-2210.83
-2115.04
-2008.51
-1901.99
-1794.86
-1681.33
-1566.1
-1451.26
-1335.76